LAMMPS data file via write_data, version 4 Jan 2019, timestep = 4000000

512 atoms
1 atom types

2.1134235300216275e-01 2.4623657646999376e+01 xlo xhi
2.1134235300216275e-01 2.4623657646999376e+01 ylo yhi
2.1134235300216275e-01 2.4623657646999376e+01 zlo zhi

Masses

1 18.0153

Atoms # atomic

374 1 2.7084224141520896e-01 1.0944308966697880e+01 8.0853504549647290e+00 -12 42 -7
457 1 1.7962392391178380e+01 5.4453048616898538e+00 2.4514886912098621e+00 -20 -39 71
132 1 1.2170566410534565e+00 3.0747377428957723e-01 7.5682909835474410e+00 -46 -6 -72
469 1 1.1815985375257684e+01 5.9263090771886171e+00 1.0304049528723294e+00 40 10 27
299 1 8.4040743905186177e-01 5.9932856974211930e+00 3.8230023675663678e+00 54 21 61
330 1 9.0939772999960073e+00 9.5934033477673459e+00 3.8493047071743893e+00 -15 28 39
397 1 2.5590451513495442e+00 4.7582388082957655e-01 6.0937452317076335e-01 -47 55 -47
166 1 1.1376767883749432e+01 8.7497120535758164e+00 5.3924705172162559e+00 38 -14 -26
172 1 4.3483158849069996e+00 1.0163446747595786e+00 2.5099117011431966e+00 -25 -107 40
507 1 4.4778984983775771e+00 5.6967396586305163e+00 1.3358245112354683e+00 -63 23 -15
351 1 1.6435833224294498e+01 2.1367493283237255e+00 4.7116241655055751e+00 27 -27 -65
343 1 5.8650752160891901e+00 2.9865451857915506e+00 1.0813225793431065e+00 -68 14 150
158 1 5.5147432323420169e+00 1.1341102597953816e+01 5.6237482762732043e+00 -61 51 -90
67 1 1.0938234876576121e+01 2.3379430973320541e+00 3.7254571607384537e+00 -18 -84 -38
227 1 1.3900723523237872e+01 4.1139099637919134e+00 5.3398672512625178e-01 129 107 -4
348 1 2.3411051290255511e+01 2.9151268554970633e+00 5.2396771335870218e+00 -8 -19 18
253 1 2.2031074486343485e+01 5.1470765619282952e+00 1.7320010057811164e+00 3 13 -8
301 1 1.4166414069663043e+01 8.4031327656102714e+00 6.1218665301625173e+00 119 24 32
115 1 2.2016963334508045e+01 1.0022634373803822e+01 3.2948723448663944e+00 75 -145 26
441 1 7.9058986776054150e+00 2.3376236656805500e+00 3.5566918591240775e+00 -9 -60 -11
250 1 1.1589348778273600e+00 2.6481393244001032e+00 1.7600661492384955e+00 -10 9 165
202 1 8.9288965840170960e+00 5.9478092529259969e+00 2.5870919056925956e-01 30 88 -20
284 1 1.8092940732976215e+00 5.4986236688667161e+00 1.3587935175821568e+00 -82 -65 -5
6 1 2.2759451301993593e+01 9.9233439267575214e+00 6.2477754806574772e+00 87 20 -29
103 1 8.8253973037020970e+00 3.3260149703581328e+00 1.0688724176350985e+00 -23 41 -48
417 1 5.6849476213559766e+00 7.4109019287251732e+00 3.2120882701885956e+00 10 5 -25
209 1 2.2554381090703149e+01 5.4152604392059303e+00 4.5049271400131339e+00 1 19 -40
200 1 9.9578863154820709e+00 8.6316172104067252e+00 7.8146535674961628e+00 62 93 -17
64 1 4.0657722039686126e+00 9.6264346269579804e+00 4.0053943796948719e+00 -33 61 23
504 1 1.5228076566614257e+00 1.1573167253293882e+01 5.6868935069448288e+00 -35 -29 50
503 1 2.1196439583173898e+01 7.4162087647141162e+00 6.1166274686513242e+00 -14 -3 29
62 1 7.1410705937610759e+00 1.6086847495540100e+00 6.1172761186422466e+00 81 -27 -47
83 1 8.1769142764582341e+00 4.7648422315939882e+00 5.0101036405853270e+00 37 6 12
185 1 1.8660197674922834e+01 1.1584724886379203e+01 2.5889009475715516e+00 7 12 -16
338 1 1.8047598943909872e+01 4.3706204998043612e+00 5.1966736966081140e+00 -7 2 38
286 1 1.1144726163436633e+01 1.0421280845079627e+01 1.9163571342154000e+00 50 -16 17
251 1 4.9709965622110062e+00 2.7459464710684451e+00 4.5147138921496666e+00 -42 31 -44
242 1 1.6573912230570489e+01 3.3704462610993686e+00 1.1573041633144867e+00 13 5 -51
435 1 1.5889825465240865e+01 1.1431346602136463e+01 2.1526565955808894e+00 -49 -12 -19
263 1 1.5616952165798301e+01 1.0587555800313480e+01 5.0149738516578148e+00 29 139 1
41 1 1.8394550834951566e+01 1.0896266956025517e+01 5.4325476439907368e+00 71 -8 33
215 1 2.0666423881263153e+01 1.1783112637532328e+01 7.1694016675172332e+00 2 -139 -34
363 1 3.5671528852155765e+00 1.0710845165335495e+01 1.3355108954644883e+00 -20 -42 13
84 1 1.2770764684899172e+01 8.4630401982731485e+00 9.7397218412202358e-01 35 57 21
362 1 1.1381560204043545e+01 6.4220884578117374e+00 3.8061012308042796e+00 -57 -18 -61
44 1 1.8411449954451108e+01 9.2613562253715127e+00 1.1333340794301665e+00 -18 -37 101
184 1 2.0525253181237421e+01 3.2817895392541350e+00 4.5614352458743168e+00 -4 3 39
85 1 3.6203418309406330e+00 6.3525655829358003e+00 7.7738274362572550e+00 22 40 -101
393 1 1.5821600066658799e+00 8.8284168796723144e+00 4.8344322613613357e+00 93 40 -87
210 1 7.0796635495737341e+00 5.3343115235719347e+00 7.4405409138600413e+00 -11 5 44
235 1 1.5826434615835698e+00 3.5598718387826969e+00 4.3219223696483242e+00 22 -60 146
151 1 1.5619072758611278e+01 8.8615315801807135e+00 1.4455488241035861e+00 -45 -34 -6
433 1 1.3754424931692512e+01 1.2295370627887975e+01 6.0381461267779182e+00 14 -52 -38
275 1 8.9536532479970319e+00 8.8418891590686837e+00 8.5900670052398020e-01 30 -14 31
429 1 1.6932776284892949e+01 1.0558000970620978e+00 2.0318588398313140e+00 -23 -34 43
171 1 7.0862317294613630e+00 8.2326779753948536e+00 8.1912004014077375e+00 -34 45 9
124 1 2.7473707928608726e+00 2.2440796886073624e+00 6.3708390471246270e+00 -54 159 -21
105 1 8.4255370122539723e+00 7.0353980847816651e+00 2.9485922484408720e+00 6 93 11
194 1 9.8447392206000099e+00 1.1588426418340035e+01 7.9577132484013999e+00 43 106 0
459 1 2.0055184771822692e+01 7.6236718625105371e-01 5.7343833240381397e+00 64 -12 46
230 1 1.5692498962812961e+01 6.8409313797536457e+00 3.5349029441510988e+00 2 -24 -135
70 1 2.1105550662421908e+01 7.7947415694450228e+00 2.1305750064846460e+00 90 -5 13
324 1 1.9993221613069309e+01 2.9802174588476471e+00 1.8995481297727548e+00 6 -58 77
340 1 4.7713225706292715e+00 5.4569473164632205e+00 5.4048120868400416e+00 53 41 21
370 1 1.6840896457243861e+01 7.0224496565317009e+00 5.9619058903708222e+00 -30 114 34
273 1 1.0934038663928311e+01 4.2157090949816540e+00 5.8192072869749163e+00 77 175 119
298 1 1.1886525001424245e+01 1.9621781737577548e+00 1.0458838819432690e+00 11 40 1
424 1 1.1499143173768445e+01 1.1492743003536239e+01 4.5489999508631103e+00 41 2 -19
484 1 1.4052370887432826e+01 3.0422326228744496e+00 5.7632466599714540e+00 -50 -22 93
169 1 2.3414408057327762e+01 2.0737133190064476e+00 7.7588305967078099e+00 -7 34 6
450 1 1.4131643249098540e+01 4.8163666130306737e+00 3.4568672552058337e+00 125 -83 21
295 1 1.9061048458773328e+01 4.5509876211943903e+00 7.7900112811486206e+00 -42 -12 -18
276 1 7.6250371868937314e+00 1.2266808844919600e+01 3.5046143571777497e+00 37 164 -25
332 1 1.2699591632609695e+00 6.7340963567342618e+00 6.6121004399837933e+00 21 -24 -96
205 1 1.1321927711859709e+00 1.2107573099425451e+01 1.5815412145479586e+00 -31 -23 -61
333 1 2.3474612795436915e+01 9.6026434657423754e-01 3.1481822697795478e+00 17 40 34
99 1 1.8976835330239076e+01 8.3829937361933240e+00 4.5245820344173255e+00 1 -9 46
486 1 6.1998406688180676e+00 8.1078824067861177e+00 4.0211832601817576e-01 49 11 -13
402 1 3.4632340931261280e-01 9.6749284118123242e+00 2.4985868982293469e+00 39 50 -29
358 1 7.9600295915274257e+00 1.0073741547885653e+01 6.2847194210799788e+00 -30 89 48
109 1 6.2374730835096379e+00 2.9345814794426728e+00 8.2598664705434128e+00 -80 -31 -57
317 1 1.0565721807494715e+01 2.5593153533375057e+00 8.1873246110201272e+00 113 -27 -33
231 1 1.6650901317431224e+01 1.0692975157606947e+01 7.8762612279647319e+00 -43 11 30
408 1 2.0985762610481416e+01 6.6038906348388204e-01 8.2472819602180447e+00 -134 31 58
313 1 1.4656838866101813e+01 3.8413216115156859e+00 8.3351792166833167e+00 -44 29 35
440 1 7.4535162367143182e-01 8.0229069839324332e+00 4.7053163469028902e-01 -27 -41 116
177 1 1.8674451600017328e+01 6.7757104570339539e+00 2.6916759460559447e-01 -24 -46 41
492 1 2.2347472516758948e+01 3.5205388612961013e+00 9.8392081545785803e+00 9 -14 52
126 1 8.6639325638477747e+00 8.9645865873640158e+00 1.2869966436529410e+01 -24 -36 -29
121 1 2.1342726502836040e+00 1.2105061712588796e+01 1.1266170710773526e+01 -9 6 -2
300 1 2.1803896224189156e+01 1.1754747464722568e+01 1.0846571510116942e+01 -87 67 28
371 1 7.7741135447790410e-01 1.0749943064748823e+01 1.3562707249980226e+01 -79 37 -62
252 1 4.0206341566526671e+00 1.2008628593516661e+01 1.6057888707425974e+01 -55 -82 8
110 1 8.6001949730424414e+00 1.8014556704293978e+00 1.5761093863376407e+01 26 -28 -29
217 1 1.4173544087049077e+01 7.0096786540123430e+00 1.0775573203855943e+01 95 -43 80
63 1 6.4746634758043911e+00 3.2406244992987370e+00 1.4492732282324816e+01 7 -4 -104
412 1 2.1667945083096583e+01 1.7506046798211283e+00 1.4067928888845255e+01 -24 19 -65
102 1 1.7800048970069568e+01 5.4520655494091015e+00 1.1131566983633943e+01 24 -13 27
72 1 1.1883551711429815e+01 7.3620076120269955e+00 1.2638538769651744e+01 27 62 50
453 1 9.5764296398707205e-01 6.8954018189320090e+00 1.2050497501097567e+01 62 -6 5
406 1 8.6642907041119592e+00 3.2788332783589542e+00 1.2461105835814164e+01 50 144 1
111 1 9.0921349547614856e+00 8.7260471759073155e-01 9.9975181173873082e+00 4 42 84
179 1 2.8531070624498582e+00 5.2464924812854932e+00 1.0197786935003744e+01 -73 -72 -42
33 1 7.3659894839832303e+00 9.9565664298022778e+00 1.0592053759912124e+01 -99 -33 -22
119 1 2.4511813323488322e+01 4.4660846863684913e+00 1.1039495775739082e+01 43 70 98
361 1 2.4558451010775741e+01 1.6656874531831003e+00 1.4455797631099307e+01 -59 119 -10
368 1 2.1409424138305798e+01 5.8940626595938603e+00 8.5204369587955071e+00 44 -28 47
219 1 1.8965968917568869e+00 2.6096618993241738e+00 1.2439230816156400e+01 -29 -15 -100
39 1 1.9973936567911170e+00 4.9204102094670024e+00 1.4269055553321241e+01 3 42 47
130 1 1.4325775743128370e+01 4.7667922503360813e+00 1.3748545430140295e+01 -19 -36 10
403 1 9.9988283955726498e+00 1.1043312424411367e+01 1.5516098145778493e+01 -71 47 9
476 1 6.7295294411385287e-01 8.9732340355790186e+00 1.0150889987278473e+01 -33 -15 -57
452 1 1.1815568878584209e+01 4.9505092247552884e+00 8.4736857175542770e+00 -4 -2 84
490 1 2.3281882134728374e+01 5.5096914624005677e+00 1.3525405645204156e+01 16 -94 2
55 1 2.7343871843107750e+00 9.8899555595917228e+00 1.5238110953501154e+01 24 67 -23
380 1 6.1695058015073041e+00 1.1059259565724162e+01 1.4715285483056174e+01 1 82 62
398 1 2.1185513278331442e+01 1.6812038424451052e+00 1.1340712062361581e+01 -50 -22 12
386 1 1.5096677996937780e+01 4.0945942235792536e+00 1.1036253571334596e+01 75 -53 7
377 1 2.0174729835985495e+01 6.4225555733905821e+00 1.4402052382105818e+01 11 7 -98
382 1 4.4570216785294976e+00 6.2785648320578487e+00 1.4437849140023335e+01 44 -9 51
116 1 1.0627228939445441e+01 3.5867656856092940e+00 1.6226947889969644e+01 -43 -3 -3
87 1 1.2795138382202142e+01 7.5621572051718440e+00 8.3608124029126145e+00 -2 39 90
309 1 3.3184767601808995e+00 8.9313693792587525e+00 1.1066992160708896e+01 65 64 -45
462 1 6.8180015241689356e+00 2.0321080064916783e+00 1.0653033751678617e+01 -71 14 35
122 1 2.4155591304258952e+01 4.2244205316154133e+00 1.5973032572981069e+01 6 9 11
218 1 6.9545435428679783e+00 8.4680217551238037e+00 1.5691183523517509e+01 -52 -18 -26
147 1 1.5740201686181209e+01 1.3431887848651787e+00 1.0598373913083146e+01 -26 30 96
46 1 1.7280891598640856e+01 7.3257851319175709e+00 1.2949617858158200e+01 46 -9 63
114 1 9.5052074696277291e+00 7.6029644419481479e-01 1.3160406220595794e+01 -10 14 -12
152 1 6.5667740146699209e+00 7.2390112539222766e+00 1.1546174442516428e+01 -61 -150 -2
337 1 1.2656080114350855e+01 1.0210611852620637e+01 1.5429997608158828e+01 24 12 -41
494 1 4.7737965515883110e+00 2.0970023850551529e+00 1.2563359718038805e+01 -10 57 -84
76 1 3.6056481744757138e+00 3.0011174867979862e+00 8.8062632019493581e+00 19 21 12
336 1 4.7469638799133387e+00 5.2152453075878036e+00 1.2096191801846212e+01 41 -8 -123
282 1 1.2193160791694558e+01 3.3672182800686463e+00 1.1146482594700883e+01 35 20 74
463 1 1.8672371923156089e+01 2.2149080586384060e+00 8.7918910623594435e+00 -45 31 -36
307 1 1.9457449624817681e+01 9.0150411254730010e+00 1.3499216602602278e+01 -51 105 -12
128 1 1.2281842937117117e+01 1.2843669950350620e+00 1.3136753335808562e+01 25 1 -31
264 1 9.2251423938010451e+00 1.1837777367304332e+01 1.2713974269843742e+01 -109 29 37
213 1 1.9597343214623930e+01 3.8365503156712562e+00 1.3744970644877577e+01 -47 0 10
216 1 2.2119546635615572e+00 1.0277711677387056e+00 1.0031653909675432e+01 -33 2 164
471 1 9.3012986909521729e+00 6.3790881810418494e+00 1.1880530061393562e+01 -90 -18 32
487 1 1.6624523301623285e+01 8.3028343147357333e+00 9.5188085027677882e+00 30 41 -9
143 1 2.3145455645429497e+01 9.5644497926214012e+00 1.1799445633067181e+01 37 1 -4
69 1 1.1944514165985632e+01 1.0242867695810771e+01 9.3624828519251508e+00 -21 -3 1
187 1 9.2048609140973348e+00 6.1596717273238299e+00 9.1933071951251168e+00 0 20 -14
163 1 1.9551143695390511e+01 1.0459726653227174e+01 9.3641957598152850e+00 -49 -66 11
468 1 1.5689812553801071e+01 6.8358107411888325e+00 1.5140055148455680e+01 68 5 -41
472 1 1.7009246229480343e+01 1.0704572871451039e+00 1.5690801307518759e+01 28 -29 59
25 1 4.8195961460621808e+00 8.8080043895725648e+00 1.3564366718481624e+01 58 -79 -51
30 1 1.3532783773356186e+01 1.1412116403218965e+01 1.2971456623431520e+01 -85 6 -12
71 1 1.1244833444601843e+01 1.0048517421754704e+01 1.1968388716216589e+01 63 -70 -67
418 1 4.8371295369683445e+00 1.1517172765284760e+01 1.0987450787325294e+01 -70 -69 -5
238 1 4.9592364880311657e-01 8.1525179454886469e+00 1.4638198232422656e+01 49 25 -15
479 1 1.9512316553439547e+01 7.6589595037229126e+00 9.9837529661540518e+00 -16 -8 -54
13 1 1.5475412093441680e+01 9.3380885993353751e+00 1.5501276462608589e+01 128 -7 76
391 1 1.1105193119289753e+01 4.8307631153059658e+00 1.3484695662407962e+01 -81 -33 -11
127 1 2.0336090553153273e+01 1.0806944051709047e+01 1.5741254250336256e+01 53 66 77
18 1 1.5273829666832489e+01 9.3520823236163100e+00 1.2298725152056161e+01 50 58 41
52 1 2.1340129378520711e+01 7.7232072980008635e+00 1.2095421783856843e+01 107 -93 139
27 1 2.2630853681250088e+01 7.4956490815838679e+00 1.5952976532521021e+01 12 -28 53
355 1 1.8508042768357260e+01 3.3605188461623849e+00 1.6063079914552127e+01 -34 0 63
2 1 1.5350519862380361e+01 1.2383224606869502e+01 1.6300628852394507e+01 -48 6 -11
359 1 4.4805859097283101e+00 8.7641568107074512e+00 8.5219679088318703e+00 -42 43 5
65 1 1.7715194316969082e+01 1.1095106745046117e+01 1.2662052505806825e+01 -35 68 -18
137 1 1.3279775387456361e+01 1.3768860471075461e+00 9.0307598033835195e+00 1 -21 61
4 1 2.4108313787035261e+01 6.4595436224957421e+00 8.8039682289018018e+00 24 -86 15
465 1 1.2511191347291946e+01 7.3519487013124953e+00 1.5333225072482957e+01 36 40 32
444 1 1.7413148238040176e+01 4.2568159530740846e-01 1.3083143750901156e+01 -1 -27 18
225 1 1.8422670321544306e+01 2.6239494229404210e+00 1.1340542497520650e+01 20 82 20
310 1 4.2229635936492782e+00 6.9797264598183828e-01 1.4947954849432476e+01 -10 -6 14
510 1 1.3211832718808035e+01 2.8122963246901480e+00 1.5439824327068038e+01 -59 140 24
509 1 6.6116183676861526e+00 5.5183486449910930e+00 1.6129700789044719e+01 112 48 -74
339 1 1.3924048170474789e+01 1.1542836946150974e+01 8.8147398518085360e+00 30 51 7
192 1 1.6535306582341637e+01 5.7571382674970444e+00 8.4004673927914606e+00 -84 68 -56
387 1 3.7413795762555133e+00 7.6915471795051999e+00 1.8933192258013847e+01 77 -27 126
312 1 2.4014001400206961e+01 5.1785988336645188e+00 2.3708138063367805e+01 -5 12 21
306 1 1.7806175741460759e+01 1.0863162379519869e+01 2.3336320142907589e+01 -5 63 -67
92 1 1.7734914408161573e+00 7.7063454218554925e+00 1.6993645686842804e+01 -47 54 -105
77 1 2.0477138785956843e+01 3.0314931776992271e+00 2.1814643040195399e+01 56 -25 13
48 1 9.5789223199029934e+00 6.2431060266339138e+00 2.0429518063414175e+01 14 -7 28
95 1 1.2836594924407180e+01 4.3557282636037664e+00 2.2287439054008626e+01 60 127 -5
442 1 2.5009665860380648e+00 9.5400003503509545e+00 2.3156161526987294e+01 20 -12 -100
506 1 8.4061450816366179e+00 3.6682184757627203e+00 1.9249406372042099e+01 -16 -24 -7
381 1 9.0658314949750523e+00 5.8449655266737888e-01 1.9055737031428308e+01 27 -117 35
456 1 2.0923446495542660e+01 2.7903086085553772e+00 1.7428492864755789e+01 -29 -35 10
311 1 2.1778607381718594e+01 1.1231152595707105e+01 1.9528237451661088e+01 12 -58 21
183 1 6.5852501917859252e+00 1.1826149151999529e+01 2.2062776484512121e+01 41 100 17
365 1 9.0653105069467887e+00 5.8693220185096076e+00 1.7676680825511827e+01 -14 83 -31
11 1 5.4063704555441738e+00 9.3003563163632279e+00 2.2315811378741042e+01 13 69 -43
165 1 2.2465704959619160e+01 8.6413224307454382e+00 2.4384544341131910e+01 92 -15 99
308 1 7.1159550845559654e+00 6.5695495893882896e+00 2.2568260388762262e+01 47 100 62
226 1 2.0348407171146601e+00 1.1899394269619204e+01 1.8056047503235913e+01 5 8 -4
474 1 1.7249258883397822e+01 5.7622885045550660e+00 1.6961733513923225e+01 -7 -54 -23
244 1 1.8290569149910841e+01 6.3469466532615133e+00 1.9835959162666509e+01 -45 71 4
401 1 1.0374737738063349e+01 7.8762958925228279e+00 2.2871917610050247e+01 31 11 16
392 1 1.9777673523143445e+01 6.8385398157205808e+00 1.7166115939499655e+01 19 10 -60
145 1 1.3884765340009199e+01 1.1022896408814374e+01 2.0927323648678783e+01 29 -7 -48
66 1 1.9209497379875749e+01 8.8138144669725147e+00 1.9652315822065695e+01 -17 28 -28
290 1 1.6096683776008895e+01 6.0846060668938824e+00 2.2316826724634481e+01 -11 -97 -74
170 1 1.5356292154452005e+01 1.2825579410079671e+00 1.9998060480141106e+01 8 46 -17
319 1 1.0618832433072090e+01 3.6534857483329257e+00 2.0992407801340509e+01 -36 -6 46
498 1 6.7493448316548421e-01 7.0674095788705626e+00 2.1717801856944263e+01 40 22 4
16 1 1.3155946787589404e+01 8.6341388068282647e+00 2.2332965731982913e+01 143 91 4
50 1 6.1659444999711555e-01 9.6676526997007564e+00 1.8285064098252953e+01 12 30 -41
485 1 1.4272609890717579e+01 3.0954317627821943e+00 1.8185806104053331e+01 -11 -3 81
410 1 5.6447700044613445e+00 2.7170263555561571e+00 1.9440341832566130e+01 25 130 13
37 1 2.3155526934056269e+01 5.5890191722605227e+00 2.0286490560360591e+01 48 24 -43
473 1 1.0011652858070706e+01 8.3392109210578909e+00 1.6625163293095767e+01 -45 -36 73
439 1 1.1564343486209152e+01 2.2575872009319791e+00 1.8605454418180400e+01 22 -36 -72
366 1 2.3136173675593197e+00 3.9747688990814813e+00 1.6866361462291056e+01 159 -9 -56
42 1 1.8345607046082971e+01 9.5218650251602241e+00 1.6835579514587575e+01 -1 73 -71
482 1 6.0862118677892756e+00 1.2718536114243300e+00 2.3299572235721179e+01 6 74 34
483 1 2.2392159388415454e+01 1.0195952528673081e+01 1.7105721871458503e+01 43 62 20
409 1 3.4056513571023590e+00 7.0964778786838520e+00 2.1656330772714966e+01 -62 82 72
45 1 9.7167877974389629e+00 9.5789723236603272e+00 2.0842043767770701e+01 -2 83 -79
455 1 2.2093118384652140e+01 2.2221639201879881e+00 1.9855416874567883e+01 53 106 24
254 1 2.4490383428380046e+01 3.2351880147646903e+00 2.0058293770337507e+01 42 95 33
480 1 1.7745994005633715e+01 2.9754749467955151e+00 2.3371553796639251e+01 9 -51 79
248 1 1.9399277424773459e+01 4.7921700183930649e-01 2.3102417726005061e+01 -46 32 0
94 1 2.5970747625709460e+00 1.1255463721702027e+01 2.0616156319495182e+01 -62 27 41
267 1 1.2651158544841421e+01 6.8716738482873110e+00 2.0447968331471074e+01 -86 61 -56
201 1 2.0892901251529512e+01 1.0919579593561807e+01 2.3369573747212080e+01 -98 -50 37
198 1 1.5709005174248801e+01 8.8769132492023992e+00 2.3054069639880172e+01 -43 46 10
303 1 8.7962786237758444e+00 1.1831786372548207e+01 1.7824304689366564e+01 21 -8 203
159 1 1.3560912401810278e+01 6.8638802174924649e+00 1.8018827425186767e+01 -44 49 108
174 1 2.4221273210138136e+01 1.3224769961688554e+00 2.4006966171345862e+01 16 104 -22
150 1 4.6561628085904214e+00 5.0527249047196339e+00 2.2925478345896195e+01 79 -34 69
186 1 2.4563492679730384e+01 9.7285086474564739e+00 2.1205303947510497e+01 -23 167 37
446 1 3.9513362178269205e+00 2.6991933956075735e+00 2.2028172394656284e+01 32 37 -16
10 1 4.0049862308391688e+00 1.5748581344558006e+00 1.7792224040397983e+01 -83 58 -26
407 1 1.3253878463395877e+01 1.1213402397613647e+01 1.8141295499780981e+01 20 5 62
97 1 1.5420559933770377e+01 3.5256810430544094e+00 2.1510151046618276e+01 26 58 -10
181 1 4.3819943507751340e+00 5.1183851501118767e+00 1.8176052121516737e+01 78 73 -55
15 1 6.0458772045461613e+00 8.7494930666315227e+00 1.8240980341446786e+01 9 -12 -130
9 1 1.8164542151467856e+01 1.1143622220705662e+01 2.0464950382619026e+01 -40 31 11
247 1 2.2184752459128017e+01 5.3021819899698190e+00 1.7635912751764412e+01 16 -17 10
8 1 2.1666952202543559e+01 6.3803801496990369e+00 2.2588708984657238e+01 -30 26 -23
394 1 1.5397571296520853e+01 5.4768289326141550e+00 1.9440827633368091e+01 -114 1 -29
199 1 1.1722311280146986e+00 3.3367029427007129e+00 2.2591533417102863e+01 25 68 -25
389 1 1.5775943878106956e+01 8.4922997113386280e+00 1.8205654368364197e+01 2 74 -15
162 1 2.1733420698356845e+01 9.1650500541973159e+00 2.1367562835739005e+01 -43 8 7
430 1 1.1692795671961930e+01 9.0089549146827057e+00 1.8806554465101140e+01 54 47 6
203 1 7.3650013250058706e+00 8.1496894622769762e+00 2.0378623982518615e+01 107 -114 75
500 1 1.9090511507478848e+01 5.4574508943458317e+00 2.2377111122898434e+01 77 -76 54
423 1 9.9984330460368849e+00 2.2428402596034860e+00 2.3420350933087889e+01 -16 0 51
188 1 1.5432156142593207e+00 1.1361286822260639e+00 1.9021014705485559e+01 8 -1 70
149 1 2.2277042680071229e+01 3.0394142745247161e+00 2.4268378081477149e+01 -55 58 -11
78 1 1.6104116412881591e+01 1.1408416872854572e+01 1.8984594940622276e+01 -10 -60 -34
100 1 6.8085827050435208e+00 5.6195818619293747e-01 2.0854765255169443e+01 46 -130 -25
249 1 6.1321990193946991e+00 1.1398045525237189e+01 1.7773448410622876e+01 -72 -48 -30
405 1 7.0384174609254502e-01 1.1940970481464623e+01 2.2962248864212750e+01 -22 -2 53
466 1 1.7178864548972701e+01 2.4285452694555961e+01 6.0532915607035651e+00 110 -31 -21
229 1 2.1809144476283070e+01 1.3271886500527346e+01 5.5337355053675197e-01 48 29 12
437 1 3.4741083639410615e+00 1.6417791966796532e+01 5.6158874461256163e+00 13 8 -112
24 1 1.4165636902933745e+01 1.7134304002956899e+01 7.4680747042608626e+00 29 -54 66
279 1 2.4592442454757759e+01 2.2971921287794615e+01 4.6261174612093621e+00 -39 158 49
451 1 2.1241330990988850e+01 1.8838089801752425e+01 8.0779364609067255e+00 68 34 -23
431 1 1.6463747603885373e+01 2.0569097434054555e+01 4.4060097290197291e+00 -64 -38 -32
26 1 2.3428030501528749e+01 1.5821312739558014e+01 4.4076095743471164e+00 -24 23 66
19 1 5.2762482101854138e+00 2.0263515206506337e+01 6.8361981904612987e+00 12 48 81
344 1 1.0226804546799572e+01 1.7450237127636861e+01 4.3644132672054621e+00 35 -49 6
40 1 9.9859296459922398e+00 1.3834756463680694e+01 4.1926275661488281e+00 7 37 60
138 1 2.2465281588172443e+00 1.9306137780831218e+01 2.4841117221959772e+00 186 34 22
493 1 2.3113212782648276e+01 1.6465183277537264e+01 7.5017141471225557e+00 -46 89 45
375 1 2.9559206442762709e+00 1.4653781947120722e+01 1.4773037085559821e+00 2 50 -113
489 1 5.8790987937446113e+00 2.3714787060470659e+01 6.6662023803463804e+00 72 190 -48
350 1 3.5700969632342887e+00 1.3438748052581129e+01 6.6105827812952311e+00 23 2 44
156 1 3.8714631425721620e+00 2.1213718432437961e+01 4.1684818643627919e+00 38 31 -19
144 1 1.8609341580439075e+01 1.4276447571166907e+01 2.3713083333963287e+00 -19 35 50
75 1 5.4226152318620784e+00 2.2876114569474336e+01 2.4271684796022099e+00 8 35 -1
372 1 7.7598835341117649e+00 1.5749809231578858e+01 4.0345165382920207e+00 15 -5 13
505 1 1.5849269239758300e+01 1.5346254081290610e+01 2.6491136546681120e+00 -1 30 -50
21 1 6.7630847473841955e+00 2.1660330503760928e+01 4.9601105237413758e+00 9 -3 -108
411 1 5.6978886824565054e+00 2.0223238550551958e+01 1.0626780515920520e+00 27 111 162
96 1 2.4341492672268387e+01 1.6623456413664115e+01 9.9624954107789876e-01 238 47 65
193 1 8.5826661453980080e+00 1.3085435951890851e+01 9.6058932725471635e-01 -75 23 -14
335 1 1.4186940304937686e+01 1.7546922725341748e+01 2.3627284427460111e+00 18 -21 93
168 1 2.0409995906144054e+01 1.4912143071478873e+01 4.8207931130658723e+00 96 -53 -53
28 1 2.1814630844204945e+01 1.7106045300387677e+01 2.5387167504600510e+00 21 35 27
141 1 8.1100479627689559e+00 1.8981840112873126e+01 1.3289037926534848e+00 86 77 -5
352 1 2.2914016779986660e+01 2.3432608328984841e+01 6.8663690467633351e+00 45 -41 -69
329 1 1.4152822632887482e+01 1.3340739884963297e+01 3.2502857730362305e+00 6 -131 -57
477 1 2.1287687519526834e+01 2.3781979283607068e+01 3.6452414436780565e+00 34 -5 37
385 1 5.9428247936930747e+00 1.7843439600998465e+01 5.0460178172185728e+00 43 32 53
259 1 1.4890901765065994e+01 2.2953065329083870e+01 4.3438124076873867e+00 0 49 33
14 1 1.9153780321526479e+00 1.6466178003471551e+01 3.0660071509466844e+00 57 -25 38
118 1 1.5280098691358887e+01 2.3579796467885213e+01 1.7129567614630876e+00 -29 138 -80
302 1 2.1477547678956984e+01 2.1246528539834312e+01 4.3999890750915061e+00 43 -69 -36
157 1 8.4591158893430087e+00 1.6139597108132762e+01 1.2753180599434706e+00 -6 -25 66
262 1 1.7401536508746226e+01 1.5259353468830152e+01 5.2526465770363178e+00 6 54 -48
129 1 1.8136488583061269e+01 2.1763489159821081e+01 6.4014061710481434e+00 -44 -37 -86
454 1 1.4956002226941758e+01 1.8328730853679726e+01 4.9815908479281283e+00 -48 52 20
274 1 2.1511394036193310e+00 2.2284395142009124e+01 6.4347344112517488e+00 -42 33 6
255 1 2.0997116745048434e+01 1.4349463752386717e+01 7.6291468295008444e+00 -122 7 82
140 1 1.0064630393776653e+01 2.3220940573140453e+01 3.4688878911481664e+00 -69 35 -15
478 1 1.3112933724031128e+01 2.0784968384417851e+01 5.0314037740311690e+00 32 -8 24
148 1 1.9789096975322320e+01 1.9647704761931656e+01 6.0217285140008894e+00 -47 41 65
285 1 2.2080819034913752e+01 2.2826816290475971e+01 7.7959004628560447e-01 -26 78 -8
512 1 4.7430648926370349e+00 1.8106866978850221e+01 2.5352562448242848e+00 -25 -24 90
475 1 1.2568870987653529e+01 2.1442547133895946e+01 7.7750569370375811e+00 13 -9 -9
195 1 1.0690502827571050e+01 1.4170596445690531e+01 6.8999033325968799e+00 -17 -11 76
108 1 1.0797302313911775e+01 2.0133277761346307e+01 9.5322176870842357e-01 37 -37 30
136 1 2.1729980752635099e+00 2.1231317426813337e+01 3.5480187625741344e-01 43 -74 111
180 1 7.1771347218308401e+00 1.2659564398311428e+01 7.6412046392418853e+00 1 288 -27
414 1 1.0891271160204310e+01 2.0328498076727204e+01 3.4826877078284686e+00 103 10 58
56 1 3.4496379918077680e-01 2.3404268495779455e+01 1.3896107181669783e+00 -11 73 28
443 1 5.0333133841341606e+00 1.6108979423260973e+01 7.3761076258114566e-01 -108 23 -19
323 1 5.0588962988334529e+00 1.2741845340834166e+01 2.0301969877983632e+00 15 -105 24
146 1 1.9460335438088130e+01 2.1401078651943877e+01 7.9235811637104303e-01 -8 -14 9
57 1 1.6697081840865611e+01 1.4714011956736160e+01 7.9336810463146845e+00 -32 -3 30
106 1 1.4126622321656873e+01 2.4425340441863501e+01 6.6639460742393748e+00 16 -18 -2
261 1 1.7917293988502056e+01 1.7342174831787187e+01 1.3837702533046574e+00 8 40 -114
419 1 2.4159437177928680e+01 2.0416999178690855e+01 3.5764767647236813e+00 49 4 16
461 1 1.3524666747381730e+01 1.4477111334680014e+01 7.7372164165615276e+00 6 33 -8
448 1 1.7433964950427139e+01 2.0046909742147687e+01 2.0466013376466545e+00 2 -39 -17
98 1 1.9328442399795598e+01 1.7437017782855087e+01 3.9719710846373832e+00 68 72 -4
425 1 6.9405634736349082e+00 1.5565816511335903e+01 6.8272836166548299e+00 64 37 -8
399 1 5.2851558153746536e+00 1.4179816789424358e+01 4.4707251650189974e+00 26 62 -20
353 1 1.1189381169621585e+01 1.7185050089005998e+01 1.8873712223662860e+00 -164 59 98
257 1 1.7605751317455081e+01 1.8021286414443651e+01 6.1713033813185252e+00 -17 11 44
155 1 7.9485494271862160e+00 2.2137104543413486e+01 7.4656666748975224e+00 -46 34 26
233 1 2.4218851598462784e+01 1.2967781154354768e+01 4.1367384912463665e+00 -6 -25 -39
422 1 2.3927498146812123e+01 1.8587559551163480e+01 5.7717630560268196e+00 -12 71 79
277 1 8.2015426840852825e+00 1.9383669956173986e+01 4.1664082018699240e+00 45 1 103
420 1 1.1418321986090946e+01 1.7700045316149492e+01 7.0502569716466379e+00 30 -26 122
82 1 1.1725102909293561e+01 1.4345890118405201e+01 2.0182717379103154e+00 -5 -3 10
22 1 1.9529393284167135e+01 2.4459596432500962e+01 1.5114075738437431e+00 5 -67 73
79 1 2.0367440181558297e+01 1.5890416395735485e+01 8.0113988918723400e-01 -5 -90 101
496 1 2.1615824373443836e+01 1.2541852392749078e+01 3.2288747301665524e+00 1 -26 25
373 1 1.6684154094905555e+01 2.0129699469182519e+01 8.1615063088430837e+00 47 40 -50
364 1 1.1385217012336422e+00 1.9847701343330201e+01 7.1904860552473542e+00 105 10 -8
470 1 9.1957496658782265e+00 1.6149325717939007e+01 8.0012916475412190e+00 17 -32 -137
91 1 2.1813422316591538e+01 1.9957178989058789e+01 1.7876585029121201e+00 -23 7 18
331 1 1.1796762349196547e+01 2.4479696352610212e+01 5.3169741655980651e+00 27 22 -11
117 1 1.0153717243126154e+01 2.0181981634295518e+01 7.5470367635946163e+00 51 47 84
142 1 9.5381433016829860e+00 2.4571949046349619e+01 6.9162218394120787e+00 25 14 57
73 1 7.9735808067803919e+00 2.4040146850655660e+01 2.4231504328676827e+00 -60 12 18
80 1 2.4367774790990754e+01 1.9347646005145990e+01 2.5502837074403217e-01 29 49 7
328 1 1.5943661259643441e+01 2.1409245257168546e+01 2.7320106790063647e-01 77 79 -11
104 1 1.7631367642280409e+01 1.8267442342773865e+01 1.3856255366948007e+01 77 23 -15
460 1 4.9500296383527322e+00 1.5331168016441387e+01 1.1528123313532051e+01 -120 125 34
318 1 1.1650867781795464e+01 2.3837426639169887e+01 9.9801119022422391e+00 34 4 155
278 1 7.1175348972651376e-01 2.4071041889179476e+01 1.6278113476463222e+01 -89 -103 46
357 1 7.1080566167282122e-01 1.3117348707684160e+01 1.5495027738656557e+01 16 -14 -10
154 1 9.1187939347156952e+00 2.1382914936073306e+01 1.2284041900392932e+01 96 -27 5
167 1 1.2238520997761946e+00 2.1385549344452034e+01 1.2382950659832332e+01 22 -26 -2
60 1 2.3150394778007048e+01 1.9805187177849572e+01 1.1111663620280357e+01 -66 -21 65
135 1 2.0132632727363863e+01 1.3215630875016352e+01 1.4752465570498286e+01 -3 54 -74
413 1 1.6652398847554480e+01 1.7419493775873100e+01 8.9980173246758390e+00 -24 12 -23