LAMMPS (4 Jan 2019)
Reading data file ...
  orthogonal box = (0.0191589 0.0191589 0.0191589) to (24.8158 24.8158 24.8158)
  1 by 2 by 3 MPI processor grid
  reading atoms ...
  512 atoms
  reading velocities ...
  512 velocities
Reading potential file WT_ML-BOP.tersoff with DATE: 2018-05-25
Neighbor list info ...
  update every 1 steps, delay 0 steps, check yes
  max neighbors/atom: 2000, page size: 100000
  master list distance cutoff = 5.55327
  ghost atom cutoff = 5.55327
  1 neighbor lists, perpetual/occasional/extra = 1 0 0
  (1) pair tersoff, perpetual
      attributes: full, newton on
      pair build: full/nsq
      stencil: none
      bin: none
Setting up Verlet run ...
  Unit style    : real
  Current step  : 0
  Time step     : 5
Per MPI rank memory allocation (min/avg/max) = 2.685 | 2.687 | 2.689 Mbytes
---------------- Step        0 ----- CPU =      0.0000 (sec) ----------------
Time     = 0.000000 Temp     = 294.450891 Press    = 562.722559 
PotEng   = -8.494318 KinEng   = 0.875988 Lx       = 24.796682 
Ly       = 24.796682 Lz       = 24.796682 Density  = 1.004569 
Volume   = 15246.871242 
---------------- Step    10000 ----- CPU =      5.9312 (sec) ----------------
Time     = 50000.000000 Temp     = 271.406891 Press    = 1136.357882 
PotEng   = -8.601074 KinEng   = 0.807432 Lx       = 24.424025 
Ly       = 24.424025 Lz       = 24.424025 Density  = 1.051257 
Volume   = 14569.737104 
---------------- Step    20000 ----- CPU =     11.9617 (sec) ----------------
Time     = 100000.000000 Temp     = 275.149226 Press    = 977.650067 
PotEng   = -8.663764 KinEng   = 0.818566 Lx       = 24.493418 
Ly       = 24.493418 Lz       = 24.493418 Density  = 1.042347 
Volume   = 14694.274929 
---------------- Step    30000 ----- CPU =     18.0030 (sec) ----------------
Time     = 150000.000000 Temp     = 252.612714 Press    = 695.284857 
PotEng   = -8.657384 KinEng   = 0.751520 Lx       = 24.438182 
Ly       = 24.438182 Lz       = 24.438182 Density  = 1.049431 
Volume   = 14595.087496 
---------------- Step    40000 ----- CPU =     24.0678 (sec) ----------------
Time     = 200000.000000 Temp     = 242.785158 Press    = 1388.871665 
PotEng   = -8.700084 KinEng   = 0.722283 Lx       = 24.504290 
Ly       = 24.504290 Lz       = 24.504290 Density  = 1.040960 
Volume   = 14713.850729 
---------------- Step    50000 ----- CPU =     30.1827 (sec) ----------------
Time     = 250000.000000 Temp     = 252.437397 Press    = -81.028974 
PotEng   = -8.627378 KinEng   = 0.750998 Lx       = 24.515529 
Ly       = 24.515529 Lz       = 24.515529 Density  = 1.039529 
Volume   = 14734.106906 
---------------- Step    60000 ----- CPU =     36.2795 (sec) ----------------
Time     = 300000.000000 Temp     = 242.704473 Press    = -439.514421 
PotEng   = -8.720572 KinEng   = 0.722043 Lx       = 24.383965 
Ly       = 24.383965 Lz       = 24.383965 Density  = 1.056447 
Volume   = 14498.162917 
---------------- Step    70000 ----- CPU =     42.3698 (sec) ----------------
Time     = 350000.000000 Temp     = 271.738594 Press    = 1680.926126 
PotEng   = -8.635537 KinEng   = 0.808419 Lx       = 24.435842 
Ly       = 24.435842 Lz       = 24.435842 Density  = 1.049732 
Volume   = 14590.895283 
---------------- Step    80000 ----- CPU =     48.5107 (sec) ----------------
Time     = 400000.000000 Temp     = 264.533624 Press    = 173.154890 
PotEng   = -8.704497 KinEng   = 0.786984 Lx       = 24.501576 
Ly       = 24.501576 Lz       = 24.501576 Density  = 1.041306 
Volume   = 14708.962746 
---------------- Step    90000 ----- CPU =     54.4076 (sec) ----------------
Time     = 450000.000000 Temp     = 256.081056 Press    = 1052.930289 
PotEng   = -8.607591 KinEng   = 0.761838 Lx       = 24.525228 
Ly       = 24.525228 Lz       = 24.525228 Density  = 1.038296 
Volume   = 14751.601638 
---------------- Step   100000 ----- CPU =     60.4345 (sec) ----------------
Time     = 500000.000000 Temp     = 256.454314 Press    = 1286.612389 
PotEng   = -8.641551 KinEng   = 0.762949 Lx       = 24.401633 
Ly       = 24.401633 Lz       = 24.401633 Density  = 1.054153 
Volume   = 14529.701095 
---------------- Step   110000 ----- CPU =     66.4537 (sec) ----------------
Time     = 550000.000000 Temp     = 253.879804 Press    = 1562.096210 
PotEng   = -8.694261 KinEng   = 0.755289 Lx       = 24.397079 
Ly       = 24.397079 Lz       = 24.397079 Density  = 1.054744 
Volume   = 14521.567820 
---------------- Step   120000 ----- CPU =     72.4720 (sec) ----------------
Time     = 600000.000000 Temp     = 264.797267 Press    = 723.152189 
PotEng   = -8.645493 KinEng   = 0.787769 Lx       = 24.406140 
Ly       = 24.406140 Lz       = 24.406140 Density  = 1.053570 
Volume   = 14537.753850 
---------------- Step   130000 ----- CPU =     78.5745 (sec) ----------------
Time     = 650000.000000 Temp     = 257.966240 Press    = 1015.852957 
PotEng   = -8.620275 KinEng   = 0.767447 Lx       = 24.428618 
Ly       = 24.428618 Lz       = 24.428618 Density  = 1.050664 
Volume   = 14577.957456 
---------------- Step   140000 ----- CPU =     84.3748 (sec) ----------------
Time     = 700000.000000 Temp     = 256.305406 Press    = 1812.458941 
PotEng   = -8.704518 KinEng   = 0.762506 Lx       = 24.445874 
Ly       = 24.445874 Lz       = 24.445874 Density  = 1.048441 
Volume   = 14608.872987 
---------------- Step   150000 ----- CPU =     90.6057 (sec) ----------------
Time     = 750000.000000 Temp     = 259.357487 Press    = 1687.893227 
PotEng   = -8.701162 KinEng   = 0.771585 Lx       = 24.421248 
Ly       = 24.421248 Lz       = 24.421248 Density  = 1.051615 
Volume   = 14564.767927 
---------------- Step   160000 ----- CPU =     96.7429 (sec) ----------------
Time     = 800000.000000 Temp     = 241.625003 Press    = 2014.910346 
PotEng   = -8.692758 KinEng   = 0.718832 Lx       = 24.327801 
Ly       = 24.327801 Lz       = 24.327801 Density  = 1.063780 
Volume   = 14398.211634 
---------------- Step   170000 ----- CPU =    102.7433 (sec) ----------------
Time     = 850000.000000 Temp     = 251.656450 Press    = 1700.993570 
PotEng   = -8.753863 KinEng   = 0.748675 Lx       = 24.511470 
Ly       = 24.511470 Lz       = 24.511470 Density  = 1.040046 
Volume   = 14726.788915 
---------------- Step   180000 ----- CPU =    108.7967 (sec) ----------------
Time     = 900000.000000 Temp     = 256.003072 Press    = 180.691324 
PotEng   = -8.641160 KinEng   = 0.761606 Lx       = 24.407434 
Ly       = 24.407434 Lz       = 24.407434 Density  = 1.053402 
Volume   = 14540.065520 
---------------- Step   190000 ----- CPU =    114.7424 (sec) ----------------
Time     = 950000.000000 Temp     = 264.217201 Press    = 587.153541 
PotEng   = -8.701972 KinEng   = 0.786043 Lx       = 24.403405 
Ly       = 24.403405 Lz       = 24.403405 Density  = 1.053924 
Volume   = 14532.866066 
---------------- Step   200000 ----- CPU =    120.7325 (sec) ----------------
Time     = 1000000.000000 Temp     = 247.700072 Press    = 316.109314 
PotEng   = -8.690671 KinEng   = 0.736905 Lx       = 24.502456 
Ly       = 24.502456 Lz       = 24.502456 Density  = 1.041194 
Volume   = 14710.548133 
---------------- Step   210000 ----- CPU =    126.7430 (sec) ----------------
Time     = 1050000.000000 Temp     = 268.163416 Press    = 1467.529027 
PotEng   = -8.655219 KinEng   = 0.797783 Lx       = 24.365953 
Ly       = 24.365953 Lz       = 24.365953 Density  = 1.058791 
Volume   = 14466.058293 
---------------- Step   220000 ----- CPU =    132.7024 (sec) ----------------
Time     = 1100000.000000 Temp     = 251.983756 Press    = 809.042359 
PotEng   = -8.650582 KinEng   = 0.749649 Lx       = 24.567206 
Ly       = 24.567206 Lz       = 24.567206 Density  = 1.032983 
Volume   = 14827.479096 
---------------- Step   230000 ----- CPU =    138.7346 (sec) ----------------
Time     = 1150000.000000 Temp     = 260.650248 Press    = -432.358249 
PotEng   = -8.593652 KinEng   = 0.775431 Lx       = 24.512993 
Ly       = 24.512993 Lz       = 24.512993 Density  = 1.039852 
Volume   = 14729.534262 
---------------- Step   240000 ----- CPU =    144.7310 (sec) ----------------
Time     = 1200000.000000 Temp     = 258.132519 Press    = -160.116980 
PotEng   = -8.691087 KinEng   = 0.767941 Lx       = 24.399725 
Ly       = 24.399725 Lz       = 24.399725 Density  = 1.054401 
Volume   = 14526.293436 
---------------- Step   250000 ----- CPU =    150.6991 (sec) ----------------
Time     = 1250000.000000 Temp     = 272.217433 Press    = 5.773302 
PotEng   = -8.686054 KinEng   = 0.809844 Lx       = 24.474658 
Ly       = 24.474658 Lz       = 24.474658 Density  = 1.044746 
Volume   = 14660.536752 
---------------- Step   260000 ----- CPU =    156.6962 (sec) ----------------
Time     = 1300000.000000 Temp     = 245.068007 Press    = 1156.753022 
PotEng   = -8.646687 KinEng   = 0.729074 Lx       = 24.547741 
Ly       = 24.547741 Lz       = 24.547741 Density  = 1.035442 
Volume   = 14792.263038 
---------------- Step   270000 ----- CPU =    162.6636 (sec) ----------------
Time     = 1350000.000000 Temp     = 261.350193 Press    = 1525.822825 
PotEng   = -8.712742 KinEng   = 0.777514 Lx       = 24.445281 
Ly       = 24.445281 Lz       = 24.445281 Density  = 1.048517 
Volume   = 14607.809241 
---------------- Step   280000 ----- CPU =    168.7824 (sec) ----------------
Time     = 1400000.000000 Temp     = 257.276705 Press    = 1369.493570 
PotEng   = -8.681206 KinEng   = 0.765395 Lx       = 24.258698 
Ly       = 24.258698 Lz       = 24.258698 Density  = 1.072897 
Volume   = 14275.866080 
---------------- Step   290000 ----- CPU =    174.7932 (sec) ----------------
Time     = 1450000.000000 Temp     = 259.429215 Press    = 475.579695 
PotEng   = -8.655858 KinEng   = 0.771799 Lx       = 24.548997 
Ly       = 24.548997 Lz       = 24.548997 Density  = 1.035283 
Volume   = 14794.533460 
---------------- Step   300000 ----- CPU =    180.8687 (sec) ----------------
Time     = 1500000.000000 Temp     = 251.922586 Press    = 112.873692 
PotEng   = -8.657113 KinEng   = 0.749467 Lx       = 24.362842 
Ly       = 24.362842 Lz       = 24.362842 Density  = 1.059197 
Volume   = 14460.517018 
---------------- Step   310000 ----- CPU =    186.8526 (sec) ----------------
Time     = 1550000.000000 Temp     = 273.347899 Press    = 1434.805582 
PotEng   = -8.713408 KinEng   = 0.813207 Lx       = 24.354355 
Ly       = 24.354355 Lz       = 24.354355 Density  = 1.060305 
Volume   = 14445.411096 
---------------- Step   320000 ----- CPU =    192.8551 (sec) ----------------
Time     = 1600000.000000 Temp     = 255.407475 Press    = 1529.239700 
PotEng   = -8.704814 KinEng   = 0.759834 Lx       = 24.383546 
Ly       = 24.383546 Lz       = 24.383546 Density  = 1.056501 
Volume   = 14497.415851 
---------------- Step   330000 ----- CPU =    198.8495 (sec) ----------------
Time     = 1650000.000000 Temp     = 264.273598 Press    = 1568.466744 
PotEng   = -8.692814 KinEng   = 0.786211 Lx       = 24.520297 
Ly       = 24.520297 Lz       = 24.520297 Density  = 1.038923 
Volume   = 14742.705032 
---------------- Step   340000 ----- CPU =    204.6003 (sec) ----------------
Time     = 1700000.000000 Temp     = 256.280300 Press    = 874.177784 
PotEng   = -8.686519 KinEng   = 0.762431 Lx       = 24.502292 
Ly       = 24.502292 Lz       = 24.502292 Density  = 1.041215 
Volume   = 14710.251956 
---------------- Step   350000 ----- CPU =    210.6817 (sec) ----------------
Time     = 1750000.000000 Temp     = 238.978341 Press    = 1444.697010 
PotEng   = -8.670244 KinEng   = 0.710958 Lx       = 24.252825 
Ly       = 24.252825 Lz       = 24.252825 Density  = 1.073677 
Volume   = 14265.500801 
---------------- Step   360000 ----- CPU =    216.6945 (sec) ----------------
Time     = 1800000.000000 Temp     = 264.602358 Press    = 1216.912379 
PotEng   = -8.696555 KinEng   = 0.787189 Lx       = 24.405767 
Ly       = 24.405767 Lz       = 24.405767 Density  = 1.053618 
Volume   = 14537.087225 
---------------- Step   370000 ----- CPU =    222.7117 (sec) ----------------
Time     = 1850000.000000 Temp     = 249.932199 Press    = 823.271704 
PotEng   = -8.643617 KinEng   = 0.743545 Lx       = 24.394316 
Ly       = 24.394316 Lz       = 24.394316 Density  = 1.055102 
Volume   = 14516.634845 
---------------- Step   380000 ----- CPU =    228.8299 (sec) ----------------
Time     = 1900000.000000 Temp     = 257.430509 Press    = 1525.935491 
PotEng   = -8.676502 KinEng   = 0.765853 Lx       = 24.406004 
Ly       = 24.406004 Lz       = 24.406004 Density  = 1.053587 
Volume   = 14537.509420 
---------------- Step   390000 ----- CPU =    234.7830 (sec) ----------------
Time     = 1950000.000000 Temp     = 254.830292 Press    = 1794.044656 
PotEng   = -8.679627 KinEng   = 0.758117 Lx       = 24.364691 
Ly       = 24.364691 Lz       = 24.364691 Density  = 1.058956 
Volume   = 14463.809838 
---------------- Step   400000 ----- CPU =    240.7369 (sec) ----------------
Time     = 2000000.000000 Temp     = 279.395494 Press    = 644.321474 
PotEng   = -8.702505 KinEng   = 0.831198 Lx       = 24.534851 
Ly       = 24.534851 Lz       = 24.534851 Density  = 1.037075 
Volume   = 14768.972666 
---------------- Step   410000 ----- CPU =    246.6917 (sec) ----------------
Time     = 2050000.000000 Temp     = 267.636985 Press    = 1316.937764 
PotEng   = -8.748654 KinEng   = 0.796217 Lx       = 24.474154 
Ly       = 24.474154 Lz       = 24.474154 Density  = 1.044810 
Volume   = 14659.631624 
---------------- Step   420000 ----- CPU =    252.4770 (sec) ----------------
Time     = 2100000.000000 Temp     = 254.138460 Press    = 1219.395951 
PotEng   = -8.622421 KinEng   = 0.756059 Lx       = 24.322296 
Ly       = 24.322296 Lz       = 24.322296 Density  = 1.064503 
Volume   = 14388.440437 
---------------- Step   430000 ----- CPU =    258.4251 (sec) ----------------
Time     = 2150000.000000 Temp     = 280.202497 Press    = 1847.241711 
PotEng   = -8.614288 KinEng   = 0.833599 Lx       = 24.499733 
Ly       = 24.499733 Lz       = 24.499733 Density  = 1.041541 
Volume   = 14705.643888 
---------------- Step   440000 ----- CPU =    264.3163 (sec) ----------------
Time     = 2200000.000000 Temp     = 265.966535 Press    = 632.692563 
PotEng   = -8.701339 KinEng   = 0.791247 Lx       = 24.490370 
Ly       = 24.490370 Lz       = 24.490370 Density  = 1.042736 
Volume   = 14688.789892 
---------------- Step   450000 ----- CPU =    270.2813 (sec) ----------------
Time     = 2250000.000000 Temp     = 264.654247 Press    = 1281.728486 
PotEng   = -8.676593 KinEng   = 0.787343 Lx       = 24.540122 
Ly       = 24.540122 Lz       = 24.540122 Density  = 1.036407 
Volume   = 14778.492198 
---------------- Step   460000 ----- CPU =    276.3212 (sec) ----------------
Time     = 2300000.000000 Temp     = 248.507827 Press    = 1134.669121 
PotEng   = -8.695749 KinEng   = 0.739308 Lx       = 24.453140 
Ly       = 24.453140 Lz       = 24.453140 Density  = 1.047506 
Volume   = 14621.903665 
---------------- Step   470000 ----- CPU =    282.4071 (sec) ----------------
Time     = 2350000.000000 Temp     = 267.820964 Press    = 509.296242 
PotEng   = -8.677400 KinEng   = 0.796764 Lx       = 24.454208 
Ly       = 24.454208 Lz       = 24.454208 Density  = 1.047369 
Volume   = 14623.819254 
---------------- Step   480000 ----- CPU =    288.4280 (sec) ----------------
Time     = 2400000.000000 Temp     = 261.785964 Press    = 2029.898914 
PotEng   = -8.728432 KinEng   = 0.778810 Lx       = 24.277436 
Ly       = 24.277436 Lz       = 24.277436 Density  = 1.070415 
Volume   = 14308.973183 
---------------- Step   490000 ----- CPU =    294.4743 (sec) ----------------
Time     = 2450000.000000 Temp     = 267.578656 Press    = 2257.753051 
PotEng   = -8.668976 KinEng   = 0.796043 Lx       = 24.457351 
Ly       = 24.457351 Lz       = 24.457351 Density  = 1.046965 
Volume   = 14629.458799 
---------------- Step   500000 ----- CPU =    300.4459 (sec) ----------------
Time     = 2500000.000000 Temp     = 259.612049 Press    = 485.960120 
PotEng   = -8.713492 KinEng   = 0.772343 Lx       = 24.453723 
Ly       = 24.453723 Lz       = 24.453723 Density  = 1.047431 
Volume   = 14622.949456 
---------------- Step   510000 ----- CPU =    306.4609 (sec) ----------------
Time     = 2550000.000000 Temp     = 266.655645 Press    = 68.421029 
PotEng   = -8.697213 KinEng   = 0.793297 Lx       = 24.428039 
Ly       = 24.428039 Lz       = 24.428039 Density  = 1.050739 
Volume   = 14576.920600 
---------------- Step   520000 ----- CPU =    312.5603 (sec) ----------------
Time     = 2600000.000000 Temp     = 270.515282 Press    = 779.588177 
PotEng   = -8.654450 KinEng   = 0.804780 Lx       = 24.473640 
Ly       = 24.473640 Lz       = 24.473640 Density  = 1.044876 
Volume   = 14658.708607 
---------------- Step   530000 ----- CPU =    318.3954 (sec) ----------------
Time     = 2650000.000000 Temp     = 260.931567 Press    = 1596.346760 
PotEng   = -8.683393 KinEng   = 0.776268 Lx       = 24.412148 
Ly       = 24.412148 Lz       = 24.412148 Density  = 1.052792 
Volume   = 14548.491690 
---------------- Step   540000 ----- CPU =    324.3651 (sec) ----------------
Time     = 2700000.000000 Temp     = 252.077877 Press    = 1361.269857 
PotEng   = -8.592373 KinEng   = 0.749929 Lx       = 24.543717 
Ly       = 24.543717 Lz       = 24.543717 Density  = 1.035952 
Volume   = 14784.988484 
---------------- Step   550000 ----- CPU =    330.4529 (sec) ----------------
Time     = 2750000.000000 Temp     = 233.765605 Press    = 1699.280928 
PotEng   = -8.640707 KinEng   = 0.695450 Lx       = 24.561708 
Ly       = 24.561708 Lz       = 24.561708 Density  = 1.033677 
Volume   = 14817.526152 
---------------- Step   560000 ----- CPU =    336.4254 (sec) ----------------
Time     = 2800000.000000 Temp     = 244.116427 Press    = 732.143500 
PotEng   = -8.663465 KinEng   = 0.726243 Lx       = 24.436084 
Ly       = 24.436084 Lz       = 24.436084 Density  = 1.049701 
Volume   = 14591.328932 
---------------- Step   570000 ----- CPU =    342.4956 (sec) ----------------
Time     = 2850000.000000 Temp     = 248.162397 Press    = 1246.973162 
PotEng   = -8.688344 KinEng   = 0.738280 Lx       = 24.320503 
Ly       = 24.320503 Lz       = 24.320503 Density  = 1.064738 
Volume   = 14385.257603 
---------------- Step   580000 ----- CPU =    348.6064 (sec) ----------------
Time     = 2900000.000000 Temp     = 240.498745 Press    = 1569.724878 
PotEng   = -8.671578 KinEng   = 0.715481 Lx       = 24.533570 
Ly       = 24.533570 Lz       = 24.533570 Density  = 1.037238 
Volume   = 14766.659002 
---------------- Step   590000 ----- CPU =    354.4379 (sec) ----------------
Time     = 2950000.000000 Temp     = 271.589723 Press    = 40.086137 
PotEng   = -8.630362 KinEng   = 0.807976 Lx       = 24.523067 
Ly       = 24.523067 Lz       = 24.523067 Density  = 1.038571 
Volume   = 14747.702732 
---------------- Step   600000 ----- CPU =    360.3809 (sec) ----------------
Time     = 3000000.000000 Temp     = 265.402905 Press    = 1573.117882 
PotEng   = -8.680245 KinEng   = 0.789570 Lx       = 24.490081 
Ly       = 24.490081 Lz       = 24.490081 Density  = 1.042773 
Volume   = 14688.270272 
---------------- Step   610000 ----- CPU =    366.4374 (sec) ----------------
Time     = 3050000.000000 Temp     = 261.788682 Press    = -172.995568 
PotEng   = -8.613745 KinEng   = 0.778818 Lx       = 24.563561 
Ly       = 24.563561 Lz       = 24.563561 Density  = 1.033443 
Volume   = 14820.879849 
---------------- Step   620000 ----- CPU =    372.3658 (sec) ----------------
Time     = 3100000.000000 Temp     = 253.167776 Press    = 1067.583338 
PotEng   = -8.627970 KinEng   = 0.753171 Lx       = 24.581204 
Ly       = 24.581204 Lz       = 24.581204 Density  = 1.031219 
Volume   = 14852.837420 
---------------- Step   630000 ----- CPU =    378.4106 (sec) ----------------
Time     = 3150000.000000 Temp     = 253.993822 Press    = 1350.965558 
PotEng   = -8.683256 KinEng   = 0.755629 Lx       = 24.434840 
Ly       = 24.434840 Lz       = 24.434840 Density  = 1.049861 
Volume   = 14589.100736 
---------------- Step   640000 ----- CPU =    384.4930 (sec) ----------------
Time     = 3200000.000000 Temp     = 244.314395 Press    = 1032.080242 
PotEng   = -8.665843 KinEng   = 0.726832 Lx       = 24.653710 
Ly       = 24.653710 Lz       = 24.653710 Density  = 1.022148 
Volume   = 14984.658181 
---------------- Step   650000 ----- CPU =    390.5543 (sec) ----------------
Time     = 3250000.000000 Temp     = 246.810191 Press    = 2735.461826 
PotEng   = -8.652946 KinEng   = 0.734257 Lx       = 24.246949 
Ly       = 24.246949 Lz       = 24.246949 Density  = 1.074457 
Volume   = 14255.133375 
---------------- Step   660000 ----- CPU =    396.5140 (sec) ----------------
Time     = 3300000.000000 Temp     = 258.249379 Press    = 1095.014781 
PotEng   = -8.648638 KinEng   = 0.768289 Lx       = 24.287451 
Ly       = 24.287451 Lz       = 24.287451 Density  = 1.069091 
Volume   = 14326.688948 
---------------- Step   670000 ----- CPU =    402.5424 (sec) ----------------
Time     = 3350000.000000 Temp     = 251.781256 Press    = 1343.126038 
PotEng   = -8.701221 KinEng   = 0.749046 Lx       = 24.321579 
Ly       = 24.321579 Lz       = 24.321579 Density  = 1.064597 
Volume   = 14387.167695 
---------------- Step   680000 ----- CPU =    408.6398 (sec) ----------------
Time     = 3400000.000000 Temp     = 259.505157 Press    = 94.133913 
PotEng   = -8.644154 KinEng   = 0.772025 Lx       = 24.548183 
Ly       = 24.548183 Lz       = 24.548183 Density  = 1.035386 
Volume   = 14793.062181 
---------------- Step   690000 ----- CPU =    414.7228 (sec) ----------------
Time     = 3450000.000000 Temp     = 255.631982 Press    = 1004.079125 
PotEng   = -8.665079 KinEng   = 0.760502 Lx       = 24.391730 
Ly       = 24.391730 Lz       = 24.391730 Density  = 1.055438 
Volume   = 14512.018656 
---------------- Step   700000 ----- CPU =    420.9066 (sec) ----------------
Time     = 3500000.000000 Temp     = 265.633560 Press    = 1963.803134 
PotEng   = -8.673156 KinEng   = 0.790257 Lx       = 24.458500 
Ly       = 24.458500 Lz       = 24.458500 Density  = 1.046818 
Volume   = 14631.520446 
---------------- Step   710000 ----- CPU =    426.9694 (sec) ----------------
Time     = 3550000.000000 Temp     = 280.027684 Press    = 719.557164 
PotEng   = -8.679003 KinEng   = 0.833079 Lx       = 24.419078 
Ly       = 24.419078 Lz       = 24.419078 Density  = 1.051896 
Volume   = 14560.884722 
---------------- Step   720000 ----- CPU =    432.9414 (sec) ----------------
Time     = 3600000.000000 Temp     = 256.734872 Press    = 975.979536 
PotEng   = -8.672133 KinEng   = 0.763783 Lx       = 24.417418 
Ly       = 24.417418 Lz       = 24.417418 Density  = 1.052110 
Volume   = 14557.915472 
---------------- Step   730000 ----- CPU =    438.8911 (sec) ----------------
Time     = 3650000.000000 Temp     = 251.447676 Press    = 1423.806688 
PotEng   = -8.691315 KinEng   = 0.748054 Lx       = 24.535360 
Ly       = 24.535360 Lz       = 24.535360 Density  = 1.037011 
Volume   = 14769.892332 
---------------- Step   740000 ----- CPU =    444.8001 (sec) ----------------
Time     = 3700000.000000 Temp     = 284.176740 Press    = 1199.499347 
PotEng   = -8.666863 KinEng   = 0.845422 Lx       = 24.669935 
Ly       = 24.669935 Lz       = 24.669935 Density  = 1.020132 
Volume   = 15014.262546 
---------------- Step   750000 ----- CPU =    450.9729 (sec) ----------------
Time     = 3750000.000000 Temp     = 266.296167 Press    = 670.390689 
PotEng   = -8.650750 KinEng   = 0.792228 Lx       = 24.493413 
Ly       = 24.493413 Lz       = 24.493413 Density  = 1.042348 
Volume   = 14694.267489 
---------------- Step   760000 ----- CPU =    456.9352 (sec) ----------------
Time     = 3800000.000000 Temp     = 247.739674 Press    = 1335.598320 
PotEng   = -8.637582 KinEng   = 0.737023 Lx       = 24.395404 
Ly       = 24.395404 Lz       = 24.395404 Density  = 1.054961 
Volume   = 14518.576860 
---------------- Step   770000 ----- CPU =    462.9188 (sec) ----------------
Time     = 3850000.000000 Temp     = 247.897060 Press    = 1411.404455 
PotEng   = -8.729709 KinEng   = 0.737491 Lx       = 24.385167 
Ly       = 24.385167 Lz       = 24.385167 Density  = 1.056290 
Volume   = 14500.307311 
---------------- Step   780000 ----- CPU =    468.9981 (sec) ----------------
Time     = 3900000.000000 Temp     = 266.424881 Press    = 1979.221581 
PotEng   = -8.647410 KinEng   = 0.792611 Lx       = 24.266719 
Ly       = 24.266719 Lz       = 24.266719 Density  = 1.071834 
Volume   = 14290.030663 
---------------- Step   790000 ----- CPU =    474.9388 (sec) ----------------
Time     = 3950000.000000 Temp     = 256.791958 Press    = 814.577774 
PotEng   = -8.582636 KinEng   = 0.763953 Lx       = 24.430432 
Ly       = 24.430432 Lz       = 24.430432 Density  = 1.050430 
Volume   = 14581.206426 
---------------- Step   800000 ----- CPU =    480.9559 (sec) ----------------
Time     = 4000000.000000 Temp     = 254.789192 Press    = 47.184859 
PotEng   = -8.701028 KinEng   = 0.757995 Lx       = 24.448477 
Ly       = 24.448477 Lz       = 24.448477 Density  = 1.048106 
Volume   = 14613.540698 
---------------- Step   810000 ----- CPU =    486.9636 (sec) ----------------
Time     = 4050000.000000 Temp     = 262.784058 Press    = 844.294908 
PotEng   = -8.607402 KinEng   = 0.781779 Lx       = 24.424787 
Ly       = 24.424787 Lz       = 24.424787 Density  = 1.051158 
Volume   = 14571.100068 
---------------- Step   820000 ----- CPU =    492.8324 (sec) ----------------
Time     = 4100000.000000 Temp     = 261.582728 Press    = 513.346239 
PotEng   = -8.711832 KinEng   = 0.778206 Lx       = 24.461214 
Ly       = 24.461214 Lz       = 24.461214 Density  = 1.046469 
Volume   = 14636.391047 
---------------- Step   830000 ----- CPU =    498.7877 (sec) ----------------
Time     = 4150000.000000 Temp     = 258.226681 Press    = 1036.499714 
PotEng   = -8.672400 KinEng   = 0.768221 Lx       = 24.620354 
Ly       = 24.620354 Lz       = 24.620354 Density  = 1.026308 
Volume   = 14923.919059 
---------------- Step   840000 ----- CPU =    504.7227 (sec) ----------------
Time     = 4200000.000000 Temp     = 249.506594 Press    = 1780.003248 
PotEng   = -8.667132 KinEng   = 0.742279 Lx       = 24.361549 
Ly       = 24.361549 Lz       = 24.361549 Density  = 1.059365 
Volume   = 14458.216122 
---------------- Step   850000 ----- CPU =    510.7491 (sec) ----------------
Time     = 4250000.000000 Temp     = 252.353699 Press    = 84.244147 
PotEng   = -8.662242 KinEng   = 0.750749 Lx       = 24.475017 
Ly       = 24.475017 Lz       = 24.475017 Density  = 1.044700 
Volume   = 14661.182926 
---------------- Step   860000 ----- CPU =    516.8476 (sec) ----------------
Time     = 4300000.000000 Temp     = 263.635617 Press    = 111.382836 
PotEng   = -8.688799 KinEng   = 0.784313 Lx       = 24.522411 
Ly       = 24.522411 Lz       = 24.522411 Density  = 1.038654 
Volume   = 14746.518107 
---------------- Step   870000 ----- CPU =    522.8322 (sec) ----------------
Time     = 4350000.000000 Temp     = 265.530129 Press    = 1259.253491 
PotEng   = -8.697041 KinEng   = 0.789949 Lx       = 24.517470 
Ly       = 24.517470 Lz       = 24.517470 Density  = 1.039282 
Volume   = 14737.606414 
---------------- Step   880000 ----- CPU =    528.9975 (sec) ----------------
Time     = 4400000.000000 Temp     = 262.667686 Press    = 1334.599039 
PotEng   = -8.673270 KinEng   = 0.781433 Lx       = 24.321238 
Ly       = 24.321238 Lz       = 24.321238 Density  = 1.064642 
Volume   = 14386.562855 
---------------- Step   890000 ----- CPU =    535.0333 (sec) ----------------
Time     = 4450000.000000 Temp     = 248.617727 Press    = 188.263965 
PotEng   = -8.666131 KinEng   = 0.739635 Lx       = 24.467129 
Ly       = 24.467129 Lz       = 24.467129 Density  = 1.045711 
Volume   = 14647.011965 
---------------- Step   900000 ----- CPU =    541.2608 (sec) ----------------
Time     = 4500000.000000 Temp     = 251.064564 Press    = 911.749968 
PotEng   = -8.733809 KinEng   = 0.746914 Lx       = 24.510987 
Ly       = 24.510987 Lz       = 24.510987 Density  = 1.040107 
Volume   = 14725.919389 
---------------- Step   910000 ----- CPU =    547.3261 (sec) ----------------
Time     = 4550000.000000 Temp     = 250.671212 Press    = 1055.031424 
PotEng   = -8.686623 KinEng   = 0.745744 Lx       = 24.301445 
Ly       = 24.301445 Lz       = 24.301445 Density  = 1.067245 
Volume   = 14351.467519 
---------------- Step   920000 ----- CPU =    553.2444 (sec) ----------------
Time     = 4600000.000000 Temp     = 258.334922 Press    = 905.104030 
PotEng   = -8.681664 KinEng   = 0.768543 Lx       = 24.492018 
Ly       = 24.492018 Lz       = 24.492018 Density  = 1.042526 
Volume   = 14691.755216 
---------------- Step   930000 ----- CPU =    559.2028 (sec) ----------------
Time     = 4650000.000000 Temp     = 253.218532 Press    = 814.656195 
PotEng   = -8.632865 KinEng   = 0.753322 Lx       = 24.408693 
Ly       = 24.408693 Lz       = 24.408693 Density  = 1.053239 
Volume   = 14542.315561 
---------------- Step   940000 ----- CPU =    565.1420 (sec) ----------------
Time     = 4700000.000000 Temp     = 256.855441 Press    = 1333.895007 
PotEng   = -8.746672 KinEng   = 0.764142 Lx       = 24.494982 
Ly       = 24.494982 Lz       = 24.494982 Density  = 1.042147 
Volume   = 14697.090555 
---------------- Step   950000 ----- CPU =    571.1653 (sec) ----------------
Time     = 4750000.000000 Temp     = 249.578580 Press    = 258.634675 
PotEng   = -8.735550 KinEng   = 0.742493 Lx       = 24.434714 
Ly       = 24.434714 Lz       = 24.434714 Density  = 1.049878 
Volume   = 14588.874170 
---------------- Step   960000 ----- CPU =    577.2935 (sec) ----------------
Time     = 4800000.000000 Temp     = 267.450062 Press    = 1507.200657 
PotEng   = -8.717196 KinEng   = 0.795661 Lx       = 24.255032 
Ly       = 24.255032 Lz       = 24.255032 Density  = 1.073384 
Volume   = 14269.394656 
---------------- Step   970000 ----- CPU =    583.3579 (sec) ----------------
Time     = 4850000.000000 Temp     = 247.576884 Press    = 1414.438310 
PotEng   = -8.691206 KinEng   = 0.736538 Lx       = 24.298393 
Ly       = 24.298393 Lz       = 24.298393 Density  = 1.067647 
Volume   = 14346.059990 
---------------- Step   980000 ----- CPU =    589.4134 (sec) ----------------
Time     = 4900000.000000 Temp     = 271.703026 Press    = 210.122046 
PotEng   = -8.692026 KinEng   = 0.808313 Lx       = 24.383862 
Ly       = 24.383862 Lz       = 24.383862 Density  = 1.056460 
Volume   = 14497.979122 
---------------- Step   990000 ----- CPU =    595.2946 (sec) ----------------
Time     = 4950000.000000 Temp     = 248.538066 Press    = 1697.948107 
PotEng   = -8.675374 KinEng   = 0.739398 Lx       = 24.404203 
Ly       = 24.404203 Lz       = 24.404203 Density  = 1.053820 
Volume   = 14534.291890 
---------------- Step  1000000 ----- CPU =    601.3906 (sec) ----------------
Time     = 5000000.000000 Temp     = 257.471192 Press    = 779.202418 
PotEng   = -8.651207 KinEng   = 0.765974 Lx       = 24.406196 
Ly       = 24.406196 Lz       = 24.406196 Density  = 1.053562 
Volume   = 14537.853808 
---------------- Step  1010000 ----- CPU =    607.3993 (sec) ----------------
Time     = 5050000.000000 Temp     = 254.358959 Press    = 1640.150120 
PotEng   = -8.737472 KinEng   = 0.756715 Lx       = 24.457292 
Ly       = 24.457292 Lz       = 24.457292 Density  = 1.046973 
Volume   = 14629.352674 
---------------- Step  1020000 ----- CPU =    613.3311 (sec) ----------------
Time     = 5100000.000000 Temp     = 267.493239 Press    = -468.415124 
PotEng   = -8.681354 KinEng   = 0.795789 Lx       = 24.349712 
Ly       = 24.349712 Lz       = 24.349712 Density  = 1.060911 
Volume   = 14437.149838 
---------------- Step  1030000 ----- CPU =    619.3171 (sec) ----------------
Time     = 5150000.000000 Temp     = 265.149474 Press    = 678.900183 
PotEng   = -8.645452 KinEng   = 0.788817 Lx       = 24.554484 
Ly       = 24.554484 Lz       = 24.554484 Density  = 1.034590 
Volume   = 14804.454599 
---------------- Step  1040000 ----- CPU =    625.1324 (sec) ----------------
Time     = 5200000.000000 Temp     = 256.044630 Press    = 1465.478801 
PotEng   = -8.588652 KinEng   = 0.761730 Lx       = 24.471570 
Ly       = 24.471570 Lz       = 24.471570 Density  = 1.045141 
Volume   = 14654.989291 
---------------- Step  1050000 ----- CPU =    631.1707 (sec) ----------------
Time     = 5250000.000000 Temp     = 252.765499 Press    = 306.094301 
PotEng   = -8.618262 KinEng   = 0.751974 Lx       = 24.441176 
Ly       = 24.441176 Lz       = 24.441176 Density  = 1.049045 
Volume   = 14600.451427 
---------------- Step  1060000 ----- CPU =    637.1751 (sec) ----------------
Time     = 5300000.000000 Temp     = 263.198590 Press    = 1077.708351 
PotEng   = -8.644090 KinEng   = 0.783013 Lx       = 24.466397 
Ly       = 24.466397 Lz       = 24.466397 Density  = 1.045804 
Volume   = 14645.696506 
---------------- Step  1070000 ----- CPU =    643.2339 (sec) ----------------
Time     = 5350000.000000 Temp     = 245.738000 Press    = 2138.232046 
PotEng   = -8.712135 KinEng   = 0.731068 Lx       = 24.503149 
Ly       = 24.503149 Lz       = 24.503149 Density  = 1.041106 
Volume   = 14711.796542 
---------------- Step  1080000 ----- CPU =    649.2141 (sec) ----------------
Time     = 5400000.000000 Temp     = 261.502690 Press    = 1003.091160 
PotEng   = -8.664709 KinEng   = 0.777967 Lx       = 24.462061 
Ly       = 24.462061 Lz       = 24.462061 Density  = 1.046361 
Volume   = 14637.911953 
---------------- Step  1090000 ----- CPU =    655.0709 (sec) ----------------
Time     = 5450000.000000 Temp     = 263.220642 Press    = 265.587747 
PotEng   = -8.648814 KinEng   = 0.783078 Lx       = 24.280763 
Ly       = 24.280763 Lz       = 24.280763 Density  = 1.069975 
Volume   = 14314.856255 
---------------- Step  1100000 ----- CPU =    661.2031 (sec) ----------------
Time     = 5500000.000000 Temp     = 272.467981 Press    = -78.479875 
PotEng   = -8.624723 KinEng   = 0.810589 Lx       = 24.357435 
Ly       = 24.357435 Lz       = 24.357435 Density  = 1.059902 
Volume   = 14450.891979 
---------------- Step  1110000 ----- CPU =    667.1405 (sec) ----------------
Time     = 5550000.000000 Temp     = 236.656217 Press    = 817.475493 
PotEng   = -8.696904 KinEng   = 0.704049 Lx       = 24.427891 
Ly       = 24.427891 Lz       = 24.427891 Density  = 1.050758 
Volume   = 14576.656860 
---------------- Step  1120000 ----- CPU =    673.1078 (sec) ----------------
Time     = 5600000.000000 Temp     = 255.187316 Press    = 646.162748 
PotEng   = -8.701956 KinEng   = 0.759179 Lx       = 24.493887 
Ly       = 24.493887 Lz       = 24.493887 Density  = 1.042287 
Volume   = 14695.118929 
---------------- Step  1130000 ----- CPU =    679.2260 (sec) ----------------
Time     = 5650000.000000 Temp     = 244.765403 Press    = 1564.818626 
PotEng   = -8.620090 KinEng   = 0.728174 Lx       = 24.248756 
Ly       = 24.248756 Lz       = 24.248756 Density  = 1.074217 
Volume   = 14258.320705 
---------------- Step  1140000 ----- CPU =    685.2036 (sec) ----------------
Time     = 5700000.000000 Temp     = 257.109192 Press    = 429.866157 
PotEng   = -8.734839 KinEng   = 0.764897 Lx       = 24.466392 
Ly       = 24.466392 Lz       = 24.466392 Density  = 1.045805 
Volume   = 14645.688310 
---------------- Step  1150000 ----- CPU =    691.2273 (sec) ----------------
Time     = 5750000.000000 Temp     = 269.210127 Press    = 1195.106406 
PotEng   = -8.647463 KinEng   = 0.800897 Lx       = 24.492299 
Ly       = 24.492299 Lz       = 24.492299 Density  = 1.042490 
Volume   = 14692.261749 
---------------- Step  1160000 ----- CPU =    697.0946 (sec) ----------------
Time     = 5800000.000000 Temp     = 262.443498 Press    = 1329.324274 
PotEng   = -8.702389 KinEng   = 0.780766 Lx       = 24.624630 
Ly       = 24.624630 Lz       = 24.624630 Density  = 1.025773 
Volume   = 14931.695692 
---------------- Step  1170000 ----- CPU =    703.0059 (sec) ----------------
Time     = 5850000.000000 Temp     = 271.617376 Press    = -510.807354 
PotEng   = -8.672106 KinEng   = 0.808058 Lx       = 24.456707 
Ly       = 24.456707 Lz       = 24.456707 Density  = 1.047048 
Volume   = 14628.303096 
---------------- Step  1180000 ----- CPU =    708.9905 (sec) ----------------
Time     = 5900000.000000 Temp     = 255.900874 Press    = 1404.165243 
PotEng   = -8.721594 KinEng   = 0.761302 Lx       = 24.548945 
Ly       = 24.548945 Lz       = 24.548945 Density  = 1.035290 
Volume   = 14794.439639 
---------------- Step  1190000 ----- CPU =    714.9261 (sec) ----------------
Time     = 5950000.000000 Temp     = 248.012582 Press    = 1847.450894 
PotEng   = -8.715933 KinEng   = 0.737834 Lx       = 24.367539 
Ly       = 24.367539 Lz       = 24.367539 Density  = 1.058585 
Volume   = 14468.882284 
---------------- Step  1200000 ----- CPU =    720.9666 (sec) ----------------
Time     = 6000000.000000 Temp     = 260.830098 Press    = 797.028635 
PotEng   = -8.652102 KinEng   = 0.775966 Lx       = 24.418003 
Ly       = 24.418003 Lz       = 24.418003 Density  = 1.052035 
Volume   = 14558.962503 
---------------- Step  1210000 ----- CPU =    727.1480 (sec) ----------------
Time     = 6050000.000000 Temp     = 261.322011 Press    = 1578.640819 
PotEng   = -8.623612 KinEng   = 0.777430 Lx       = 24.340890 
Ly       = 24.340890 Lz       = 24.340890 Density  = 1.062065 
Volume   = 14421.464094 
---------------- Step  1220000 ----- CPU =    732.9788 (sec) ----------------
Time     = 6100000.000000 Temp     = 251.423163 Press    = 316.797176 
PotEng   = -8.692262 KinEng   = 0.747981 Lx       = 24.459306 
Ly       = 24.459306 Lz       = 24.459306 Density  = 1.046714 
Volume   = 14632.966534 
---------------- Step  1230000 ----- CPU =    738.9498 (sec) ----------------
Time     = 6150000.000000 Temp     = 252.232506 Press    = -433.840387 
PotEng   = -8.610499 KinEng   = 0.750389 Lx       = 24.472565 
Ly       = 24.472565 Lz       = 24.472565 Density  = 1.045014 
Volume   = 14656.776419 
---------------- Step  1240000 ----- CPU =    744.8835 (sec) ----------------
Time     = 6200000.000000 Temp     = 270.815928 Press    = 400.798663 
PotEng   = -8.749752 KinEng   = 0.805674 Lx       = 24.419802 
Ly       = 24.419802 Lz       = 24.419802 Density  = 1.051802 
Volume   = 14562.180182 
---------------- Step  1250000 ----- CPU =    750.9266 (sec) ----------------
Time     = 6250000.000000 Temp     = 273.304644 Press    = 1628.420623 
PotEng   = -8.673299 KinEng   = 0.813078 Lx       = 24.244867 
Ly       = 24.244867 Lz       = 24.244867 Density  = 1.074734 
Volume   = 14251.461907 
---------------- Step  1260000 ----- CPU =    756.9917 (sec) ----------------
Time     = 6300000.000000 Temp     = 251.356749 Press    = 956.624711 
PotEng   = -8.634686 KinEng   = 0.747783 Lx       = 24.443368 
Ly       = 24.443368 Lz       = 24.443368 Density  = 1.048763 
Volume   = 14604.380437 
---------------- Step  1270000 ----- CPU =    763.0338 (sec) ----------------
Time     = 6350000.000000 Temp     = 250.274804 Press    = 1511.721754 
PotEng   = -8.750187 KinEng   = 0.744565 Lx       = 24.533790 
Ly       = 24.533790 Lz       = 24.533790 Density  = 1.037210 
Volume   = 14767.056237 
---------------- Step  1280000 ----- CPU =    769.0332 (sec) ----------------
Time     = 6400000.000000 Temp     = 251.116798 Press    = 1033.130180 
PotEng   = -8.678514 KinEng   = 0.747069 Lx       = 24.530733 
Ly       = 24.530733 Lz       = 24.530733 Density  = 1.037598 
Volume   = 14761.537328 
---------------- Step  1290000 ----- CPU =    774.9919 (sec) ----------------
Time     = 6450000.000000 Temp     = 257.556806 Press    = 1065.794851 
PotEng   = -8.671478 KinEng   = 0.766228 Lx       = 24.425244 
Ly       = 24.425244 Lz       = 24.425244 Density  = 1.051099 
Volume   = 14571.919094 
---------------- Step  1300000 ----- CPU =    781.0728 (sec) ----------------
Time     = 6500000.000000 Temp     = 255.805099 Press    = 1623.996274 
PotEng   = -8.631074 KinEng   = 0.761017 Lx       = 24.504412 
Ly       = 24.504412 Lz       = 24.504412 Density  = 1.040945 
Volume   = 14714.071751 
---------------- Step  1310000 ----- CPU =    787.1631 (sec) ----------------
Time     = 6550000.000000 Temp     = 263.956167 Press    = 684.167104 
PotEng   = -8.650202 KinEng   = 0.785266 Lx       = 24.504088 
Ly       = 24.504088 Lz       = 24.504088 Density  = 1.040986 
Volume   = 14713.488012 
---------------- Step  1320000 ----- CPU =    793.2060 (sec) ----------------
Time     = 6600000.000000 Temp     = 263.310100 Press    = 1028.955553 
PotEng   = -8.602383 KinEng   = 0.783344 Lx       = 24.401854 
Ly       = 24.401854 Lz       = 24.401854 Density  = 1.054125 
Volume   = 14530.095834 
---------------- Step  1330000 ----- CPU =    799.1953 (sec) ----------------
Time     = 6650000.000000 Temp     = 290.601661 Press    = 837.679747 
PotEng   = -8.645929 KinEng   = 0.864537 Lx       = 24.457154 
Ly       = 24.457154 Lz       = 24.457154 Density  = 1.046991 
Volume   = 14629.105066 
---------------- Step  1340000 ----- CPU =    805.1370 (sec) ----------------
Time     = 6700000.000000 Temp     = 258.344321 Press    = 1450.409946 
PotEng   = -8.651128 KinEng   = 0.768571 Lx       = 24.357976 
Ly       = 24.357976 Lz       = 24.357976 Density  = 1.059832 
Volume   = 14451.855453 
---------------- Step  1350000 ----- CPU =    811.1135 (sec) ----------------
Time     = 6750000.000000 Temp     = 262.044376 Press    = 1483.850865 
PotEng   = -8.732987 KinEng   = 0.779579 Lx       = 24.498181 
Ly       = 24.498181 Lz       = 24.498181 Density  = 1.041739 
Volume   = 14702.849520 
---------------- Step  1360000 ----- CPU =    817.0222 (sec) ----------------
Time     = 6800000.000000 Temp     = 245.080233 Press    = 1539.568674 
PotEng   = -8.665084 KinEng   = 0.729111 Lx       = 24.223964 
Ly       = 24.223964 Lz       = 24.223964 Density  = 1.077519 
Volume   = 14214.632947 
---------------- Step  1370000 ----- CPU =    823.1397 (sec) ----------------
Time     = 6850000.000000 Temp     = 252.995860 Press    = 340.385501 
PotEng   = -8.666519 KinEng   = 0.752660 Lx       = 24.293811 
Ly       = 24.293811 Lz       = 24.293811 Density  = 1.068252 
Volume   = 14337.946688 
---------------- Step  1380000 ----- CPU =    829.1025 (sec) ----------------
Time     = 6900000.000000 Temp     = 265.591597 Press    = 2325.743090 
PotEng   = -8.664135 KinEng   = 0.790132 Lx       = 24.385657 
Ly       = 24.385657 Lz       = 24.385657 Density  = 1.056227 
Volume   = 14501.182193 
---------------- Step  1390000 ----- CPU =    835.1192 (sec) ----------------
Time     = 6950000.000000 Temp     = 269.167561 Press    = 1920.987890 
PotEng   = -8.597496 KinEng   = 0.800770 Lx       = 24.330844 
Ly       = 24.330844 Lz       = 24.330844 Density  = 1.063381 
Volume   = 14403.615068 
---------------- Step  1400000 ----- CPU =    841.1554 (sec) ----------------
Time     = 7000000.000000 Temp     = 261.569042 Press    = 998.542850 
PotEng   = -8.592166 KinEng   = 0.778165 Lx       = 24.425999 
Ly       = 24.425999 Lz       = 24.425999 Density  = 1.051002 
Volume   = 14573.270292 
---------------- Step  1410000 ----- CPU =    847.1380 (sec) ----------------
Time     = 7050000.000000 Temp     = 244.915000 Press    = -595.086736 
PotEng   = -8.625263 KinEng   = 0.728619 Lx       = 24.378612 
Ly       = 24.378612 Lz       = 24.378612 Density  = 1.057143 
Volume   = 14488.617017 
---------------- Step  1420000 ----- CPU =    853.1861 (sec) ----------------
Time     = 7100000.000000 Temp     = 273.727864 Press    = 2062.560247 
PotEng   = -8.616521 KinEng   = 0.814337 Lx       = 24.193592 
Ly       = 24.193592 Lz       = 24.193592 Density  = 1.081582 
Volume   = 14161.232757 
---------------- Step  1430000 ----- CPU =    859.1847 (sec) ----------------
Time     = 7150000.000000 Temp     = 256.706543 Press    = 707.005992 
PotEng   = -8.632483 KinEng   = 0.763699 Lx       = 24.551636 
Ly       = 24.551636 Lz       = 24.551636 Density  = 1.034950 
Volume   = 14799.304675 
---------------- Step  1440000 ----- CPU =    865.0479 (sec) ----------------
Time     = 7200000.000000 Temp     = 265.269538 Press    = 867.984095 
PotEng   = -8.651070 KinEng   = 0.789174 Lx       = 24.647914 
Ly       = 24.647914 Lz       = 24.647914 Density  = 1.022869 
Volume   = 14974.091891 
---------------- Step  1450000 ----- CPU =    870.8425 (sec) ----------------
Time     = 7250000.000000 Temp     = 251.836926 Press    = 1631.978686 
PotEng   = -8.669087 KinEng   = 0.749212 Lx       = 24.572774 
Ly       = 24.572774 Lz       = 24.572774 Density  = 1.032281 
Volume   = 14837.561694 
---------------- Step  1460000 ----- CPU =    876.8039 (sec) ----------------
Time     = 7300000.000000 Temp     = 261.789766 Press    = 631.967942 
PotEng   = -8.636623 KinEng   = 0.778821 Lx       = 24.474912 
Ly       = 24.474912 Lz       = 24.474912 Density  = 1.044713 
Volume   = 14660.994298 
---------------- Step  1470000 ----- CPU =    882.8382 (sec) ----------------
Time     = 7350000.000000 Temp     = 254.642016 Press    = 69.224669 
PotEng   = -8.617278 KinEng   = 0.757557 Lx       = 24.580876 
Ly       = 24.580876 Lz       = 24.580876 Density  = 1.031261 
Volume   = 14852.243658 
---------------- Step  1480000 ----- CPU =    888.8609 (sec) ----------------
Time     = 7400000.000000 Temp     = 247.471920 Press    = -386.533592 
PotEng   = -8.665432 KinEng   = 0.736226 Lx       = 24.309951 
Ly       = 24.309951 Lz       = 24.309951 Density  = 1.066125 
Volume   = 14366.542979 
---------------- Step  1490000 ----- CPU =    894.8893 (sec) ----------------
Time     = 7450000.000000 Temp     = 262.495920 Press    = 490.810395 
PotEng   = -8.703268 KinEng   = 0.780922 Lx       = 24.384220 
Ly       = 24.384220 Lz       = 24.384220 Density  = 1.056413 
Volume   = 14498.618275 
---------------- Step  1500000 ----- CPU =    900.8576 (sec) ----------------
Time     = 7500000.000000 Temp     = 263.902206 Press    = 1298.481820 
PotEng   = -8.656414 KinEng   = 0.785106 Lx       = 24.556763 
Ly       = 24.556763 Lz       = 24.556763 Density  = 1.034301 
Volume   = 14808.578679 
---------------- Step  1510000 ----- CPU =    906.9144 (sec) ----------------
Time     = 7550000.000000 Temp     = 266.014786 Press    = 1285.114742 
PotEng   = -8.692272 KinEng   = 0.791391 Lx       = 24.472299 
Ly       = 24.472299 Lz       = 24.472299 Density  = 1.045048 
Volume   = 14656.299204 
---------------- Step  1520000 ----- CPU =    912.8385 (sec) ----------------
Time     = 7600000.000000 Temp     = 255.654862 Press    = 151.781696 
PotEng   = -8.637915 KinEng   = 0.760570 Lx       = 24.477147 
Ly       = 24.477147 Lz       = 24.477147 Density  = 1.044427 
Volume   = 14665.010936 
---------------- Step  1530000 ----- CPU =    918.8267 (sec) ----------------
Time     = 7650000.000000 Temp     = 264.543718 Press    = 617.652965 
PotEng   = -8.648255 KinEng   = 0.787014 Lx       = 24.460325 
Ly       = 24.460325 Lz       = 24.460325 Density  = 1.046583 
Volume   = 14634.795824 
---------------- Step  1540000 ----- CPU =    924.9635 (sec) ----------------
Time     = 7700000.000000 Temp     = 266.815742 Press    = 899.943688 
PotEng   = -8.694548 KinEng   = 0.793774 Lx       = 24.398230 
Ly       = 24.398230 Lz       = 24.398230 Density  = 1.054595 
Volume   = 14523.622519 
---------------- Step  1550000 ----- CPU =    930.8818 (sec) ----------------
Time     = 7750000.000000 Temp     = 267.242300 Press    = 1796.665318 
PotEng   = -8.661367 KinEng   = 0.795043 Lx       = 24.539022 
Ly       = 24.539022 Lz       = 24.539022 Density  = 1.036546 
Volume   = 14776.505280 
---------------- Step  1560000 ----- CPU =    936.7846 (sec) ----------------
Time     = 7800000.000000 Temp     = 246.155357 Press    = 1429.354435 
PotEng   = -8.628326 KinEng   = 0.732309 Lx       = 24.555981 
Ly       = 24.555981 Lz       = 24.555981 Density  = 1.034400 
Volume   = 14807.163048 
---------------- Step  1570000 ----- CPU =    942.6760 (sec) ----------------
Time     = 7850000.000000 Temp     = 264.828260 Press    = 1714.633341 
PotEng   = -8.626614 KinEng   = 0.787861 Lx       = 24.556144 
Ly       = 24.556144 Lz       = 24.556144 Density  = 1.034380 
Volume   = 14807.457609 
---------------- Step  1580000 ----- CPU =    948.7546 (sec) ----------------
Time     = 7900000.000000 Temp     = 238.208655 Press    = 351.294667 
PotEng   = -8.675185 KinEng   = 0.708668 Lx       = 24.355699 
Ly       = 24.355699 Lz       = 24.355699 Density  = 1.060129 
Volume   = 14447.802664 
---------------- Step  1590000 ----- CPU =    954.7130 (sec) ----------------
Time     = 7950000.000000 Temp     = 256.566072 Press    = 2342.561572 
PotEng   = -8.638870 KinEng   = 0.763281 Lx       = 24.466450 
Ly       = 24.466450 Lz       = 24.466450 Density  = 1.045798 
Volume   = 14645.792899 
---------------- Step  1600000 ----- CPU =    960.8177 (sec) ----------------
Time     = 8000000.000000 Temp     = 247.353300 Press    = 692.230651 
PotEng   = -8.630261 KinEng   = 0.735873 Lx       = 24.410757 
Ly       = 24.410757 Lz       = 24.410757 Density  = 1.052972 
Volume   = 14546.004809 
---------------- Step  1610000 ----- CPU =    966.9832 (sec) ----------------
Time     = 8050000.000000 Temp     = 263.646362 Press    = 1176.664383 
PotEng   = -8.671537 KinEng   = 0.784345 Lx       = 24.311526 
Ly       = 24.311526 Lz       = 24.311526 Density  = 1.065918 
Volume   = 14369.334797 
---------------- Step  1620000 ----- CPU =    972.8678 (sec) ----------------
Time     = 8100000.000000 Temp     = 267.957867 Press    = 598.512815 
PotEng   = -8.678704 KinEng   = 0.797171 Lx       = 24.535328 
Ly       = 24.535328 Lz       = 24.535328 Density  = 1.037015 
Volume   = 14769.832822 
---------------- Step  1630000 ----- CPU =    978.8209 (sec) ----------------
Time     = 8150000.000000 Temp     = 271.550962 Press    = 2179.748989 
PotEng   = -8.679984 KinEng   = 0.807861 Lx       = 24.441278 
Ly       = 24.441278 Lz       = 24.441278 Density  = 1.049032 
Volume   = 14600.635464 
---------------- Step  1640000 ----- CPU =    984.8618 (sec) ----------------
Time     = 8200000.000000 Temp     = 265.746368 Press    = 2597.576204 
PotEng   = -8.787378 KinEng   = 0.790592 Lx       = 24.424737 
Ly       = 24.424737 Lz       = 24.424737 Density  = 1.051165 
Volume   = 14571.011435 
---------------- Step  1650000 ----- CPU =    990.8573 (sec) ----------------
Time     = 8250000.000000 Temp     = 264.012953 Press    = 1356.460597 
PotEng   = -8.673487 KinEng   = 0.785435 Lx       = 24.423631 
Ly       = 24.423631 Lz       = 24.423631 Density  = 1.051308 
Volume   = 14569.031434 
---------------- Step  1660000 ----- CPU =    996.9607 (sec) ----------------
Time     = 8300000.000000 Temp     = 267.100427 Press    = 730.299712 
PotEng   = -8.657436 KinEng   = 0.794621 Lx       = 24.476099 
Ly       = 24.476099 Lz       = 24.476099 Density  = 1.044561 
Volume   = 14663.127653 
---------------- Step  1670000 ----- CPU =   1002.9004 (sec) ----------------
Time     = 8350000.000000 Temp     = 262.927563 Press    = 1390.144167 
PotEng   = -8.696319 KinEng   = 0.782206 Lx       = 24.466361 
Ly       = 24.466361 Lz       = 24.466361 Density  = 1.045809 
Volume   = 14645.632350 
---------------- Step  1680000 ----- CPU =   1008.9202 (sec) ----------------
Time     = 8400000.000000 Temp     = 261.863589 Press    = 170.820248 
PotEng   = -8.705735 KinEng   = 0.779041 Lx       = 24.512692 
Ly       = 24.512692 Lz       = 24.512692 Density  = 1.039890 
Volume   = 14728.991257 
---------------- Step  1690000 ----- CPU =   1014.7487 (sec) ----------------
Time     = 8450000.000000 Temp     = 269.196556 Press    = 1537.306092 
PotEng   = -8.624732 KinEng   = 0.800857 Lx       = 24.426656 
Ly       = 24.426656 Lz       = 24.426656 Density  = 1.050917 
Volume   = 14574.445670 
---------------- Step  1700000 ----- CPU =   1020.8108 (sec) ----------------
Time     = 8500000.000000 Temp     = 258.534193 Press    = 262.592388 
PotEng   = -8.759662 KinEng   = 0.769136 Lx       = 24.499309 
Ly       = 24.499309 Lz       = 24.499309 Density  = 1.041595 
Volume   = 14704.880007 
---------------- Step  1710000 ----- CPU =   1026.7870 (sec) ----------------
Time     = 8550000.000000 Temp     = 246.438947 Press    = 1595.207431 
PotEng   = -8.733322 KinEng   = 0.733153 Lx       = 24.452134 
Ly       = 24.452134 Lz       = 24.452134 Density  = 1.047636 
Volume   = 14620.098184 
---------------- Step  1720000 ----- CPU =   1032.7283 (sec) ----------------
Time     = 8600000.000000 Temp     = 255.055240 Press    = 1273.195353 
PotEng   = -8.639933 KinEng   = 0.758786 Lx       = 24.395321 
Ly       = 24.395321 Lz       = 24.395321 Density  = 1.054972 
Volume   = 14518.428517 
---------------- Step  1730000 ----- CPU =   1038.9526 (sec) ----------------
Time     = 8650000.000000 Temp     = 267.510385 Press    = 391.720958 
PotEng   = -8.725213 KinEng   = 0.795840 Lx       = 24.476597 
Ly       = 24.476597 Lz       = 24.476597 Density  = 1.044498 
Volume   = 14664.021440 
---------------- Step  1740000 ----- CPU =   1044.9178 (sec) ----------------
Time     = 8700000.000000 Temp     = 256.971423 Press    = -53.910426 
PotEng   = -8.663635 KinEng   = 0.764487 Lx       = 24.541934 
Ly       = 24.541934 Lz       = 24.541934 Density  = 1.036178 
Volume   = 14781.766774 
---------------- Step  1750000 ----- CPU =   1051.0207 (sec) ----------------
Time     = 8750000.000000 Temp     = 275.568306 Press    = 1594.680129 
PotEng   = -8.632451 KinEng   = 0.819812 Lx       = 24.433983 
Ly       = 24.433983 Lz       = 24.433983 Density  = 1.049972 
Volume   = 14587.564865 
---------------- Step  1760000 ----- CPU =   1056.9726 (sec) ----------------
Time     = 8800000.000000 Temp     = 261.041077 Press    = 1598.382733 
PotEng   = -8.732140 KinEng   = 0.776594 Lx       = 24.512182 
Ly       = 24.512182 Lz       = 24.512182 Density  = 1.039955 
Volume   = 14728.073089 
---------------- Step  1770000 ----- CPU =   1062.9204 (sec) ----------------
Time     = 8850000.000000 Temp     = 257.017854 Press    = 1808.539358 
PotEng   = -8.678828 KinEng   = 0.764625 Lx       = 24.414546 
Ly       = 24.414546 Lz       = 24.414546 Density  = 1.052482 
Volume   = 14552.779561 
---------------- Step  1780000 ----- CPU =   1068.9339 (sec) ----------------
Time     = 8900000.000000 Temp     = 272.317597 Press    = 1713.267050 
PotEng   = -8.627602 KinEng   = 0.810142 Lx       = 24.391083 
Ly       = 24.391083 Lz       = 24.391083 Density  = 1.055522 
Volume   = 14510.862626 
---------------- Step  1790000 ----- CPU =   1074.8844 (sec) ----------------
Time     = 8950000.000000 Temp     = 270.054992 Press    = 1445.348007 
PotEng   = -8.727653 KinEng   = 0.803410 Lx       = 24.336803 
Ly       = 24.336803 Lz       = 24.336803 Density  = 1.062600 
Volume   = 14414.200499 
---------------- Step  1800000 ----- CPU =   1080.9097 (sec) ----------------
Time     = 9000000.000000 Temp     = 238.290429 Press    = 1895.160392 
PotEng   = -8.651734 KinEng   = 0.708911 Lx       = 24.426782 
Ly       = 24.426782 Lz       = 24.426782 Density  = 1.050901 
Volume   = 14574.671103 
---------------- Step  1810000 ----- CPU =   1086.9151 (sec) ----------------
Time     = 9050000.000000 Temp     = 257.858410 Press    = 1050.600424 
PotEng   = -8.613060 KinEng   = 0.767126 Lx       = 24.470107 
Ly       = 24.470107 Lz       = 24.470107 Density  = 1.045329 
Volume   = 14652.361644 
---------------- Step  1820000 ----- CPU =   1092.9384 (sec) ----------------
Time     = 9100000.000000 Temp     = 249.751548 Press    = 2268.300167 
PotEng   = -8.609108 KinEng   = 0.743008 Lx       = 24.359472 
Ly       = 24.359472 Lz       = 24.359472 Density  = 1.059636 
Volume   = 14454.517965 
---------------- Step  1830000 ----- CPU =   1098.9318 (sec) ----------------
Time     = 9150000.000000 Temp     = 252.101912 Press    = 1086.666942 
PotEng   = -8.702346 KinEng   = 0.750000 Lx       = 24.277689 
Ly       = 24.277689 Lz       = 24.277689 Density  = 1.070381 
Volume   = 14309.420747 
---------------- Step  1840000 ----- CPU =   1104.9716 (sec) ----------------
Time     = 9200000.000000 Temp     = 264.949046 Press    = 541.793856 
PotEng   = -8.699655 KinEng   = 0.788220 Lx       = 24.511805 
Ly       = 24.511805 Lz       = 24.511805 Density  = 1.040003 
Volume   = 14727.392290 
---------------- Step  1850000 ----- CPU =   1111.0090 (sec) ----------------
Time     = 9250000.000000 Temp     = 257.991885 Press    = 191.645265 
PotEng   = -8.679002 KinEng   = 0.767523 Lx       = 24.481416 
Ly       = 24.481416 Lz       = 24.481416 Density  = 1.043881 
Volume   = 14672.684422 
---------------- Step  1860000 ----- CPU =   1117.0524 (sec) ----------------
Time     = 9300000.000000 Temp     = 265.832160 Press    = 1095.098779 
PotEng   = -8.669429 KinEng   = 0.790848 Lx       = 24.315562 
Ly       = 24.315562 Lz       = 24.315562 Density  = 1.065388 
Volume   = 14376.491788 
---------------- Step  1870000 ----- CPU =   1123.0871 (sec) ----------------
Time     = 9350000.000000 Temp     = 267.564675 Press    = 1713.305673 
PotEng   = -8.666439 KinEng   = 0.796002 Lx       = 24.250968 
Ly       = 24.250968 Lz       = 24.250968 Density  = 1.073923 
Volume   = 14262.224148 
---------------- Step  1880000 ----- CPU =   1129.0957 (sec) ----------------
Time     = 9400000.000000 Temp     = 265.062709 Press    = 1894.726163 
PotEng   = -8.732831 KinEng   = 0.788558 Lx       = 24.377489 
Ly       = 24.377489 Lz       = 24.377489 Density  = 1.057289 
Volume   = 14486.613953 
---------------- Step  1890000 ----- CPU =   1135.0740 (sec) ----------------
Time     = 9450000.000000 Temp     = 273.325618 Press    = 1398.467176 
PotEng   = -8.717618 KinEng   = 0.813140 Lx       = 24.343861 
Ly       = 24.343861 Lz       = 24.343861 Density  = 1.061676 
Volume   = 14426.746134 
---------------- Step  1900000 ----- CPU =   1141.1119 (sec) ----------------
Time     = 9500000.000000 Temp     = 279.574964 Press    = 1114.897397 
PotEng   = -8.732773 KinEng   = 0.831732 Lx       = 24.466801 
Ly       = 24.466801 Lz       = 24.466801 Density  = 1.045753 
Volume   = 14646.422287 
---------------- Step  1910000 ----- CPU =   1147.0165 (sec) ----------------
Time     = 9550000.000000 Temp     = 251.769853 Press    = 369.848400 
PotEng   = -8.628258 KinEng   = 0.749012 Lx       = 24.617845 
Ly       = 24.617845 Lz       = 24.617845 Density  = 1.026622 
Volume   = 14919.356232 
---------------- Step  1920000 ----- CPU =   1153.0763 (sec) ----------------
Time     = 9600000.000000 Temp     = 251.531273 Press    = 1379.042759 
PotEng   = -8.651301 KinEng   = 0.748303 Lx       = 24.413577 
Ly       = 24.413577 Lz       = 24.413577 Density  = 1.052607 
Volume   = 14551.047686 
---------------- Step  1930000 ----- CPU =   1159.1081 (sec) ----------------
Time     = 9650000.000000 Temp     = 250.767448 Press    = 652.299909 
PotEng   = -8.693511 KinEng   = 0.746030 Lx       = 24.384710 
Ly       = 24.384710 Lz       = 24.384710 Density  = 1.056350 
Volume   = 14499.491709 
---------------- Step  1940000 ----- CPU =   1165.2141 (sec) ----------------
Time     = 9700000.000000 Temp     = 262.871233 Press    = 1389.230982 
PotEng   = -8.698530 KinEng   = 0.782039 Lx       = 24.457780 
Ly       = 24.457780 Lz       = 24.457780 Density  = 1.046910 
Volume   = 14630.227437 
---------------- Step  1950000 ----- CPU =   1171.2489 (sec) ----------------
Time     = 9750000.000000 Temp     = 272.196961 Press    = 1822.187907 
PotEng   = -8.741101 KinEng   = 0.809783 Lx       = 24.439963 
Ly       = 24.439963 Lz       = 24.439963 Density  = 1.049202 
Volume   = 14598.277259 
---------------- Step  1960000 ----- CPU =   1177.2345 (sec) ----------------
Time     = 9800000.000000 Temp     = 253.338379 Press    = 1135.105211 
PotEng   = -8.670156 KinEng   = 0.753679 Lx       = 24.410802 
Ly       = 24.410802 Lz       = 24.410802 Density  = 1.052966 
Volume   = 14546.085028 
---------------- Step  1970000 ----- CPU =   1183.1773 (sec) ----------------
Time     = 9850000.000000 Temp     = 256.256280 Press    = 1697.778908 
PotEng   = -8.691433 KinEng   = 0.762359 Lx       = 24.598414 
Ly       = 24.598414 Lz       = 24.598414 Density  = 1.029056 
Volume   = 14884.056789 
---------------- Step  1980000 ----- CPU =   1189.1239 (sec) ----------------
Time     = 9900000.000000 Temp     = 261.488518 Press    = 157.659140 
PotEng   = -8.585713 KinEng   = 0.777925 Lx       = 24.469056 
Ly       = 24.469056 Lz       = 24.469056 Density  = 1.045464 
Volume   = 14650.472517 
---------------- Step  1990000 ----- CPU =   1195.1313 (sec) ----------------
Time     = 9950000.000000 Temp     = 255.256930 Press    = 1187.003090 
PotEng   = -8.657342 KinEng   = 0.759386 Lx       = 24.464877 
Ly       = 24.464877 Lz       = 24.464877 Density  = 1.045999 
Volume   = 14642.967424 
---------------- Step  2000000 ----- CPU =   1200.9839 (sec) ----------------
Time     = 10000000.000000 Temp     = 272.534055 Press    = 1204.542160 
PotEng   = -8.666296 KinEng   = 0.810786 Lx       = 24.439090 
Ly       = 24.439090 Lz       = 24.439090 Density  = 1.049314 
Volume   = 14596.713999 
Loop time of 1200.98 on 6 procs for 2000000 steps with 512 atoms

Performance: 719.411 ns/day, 0.033 hours/ns, 1665.302 timesteps/s
99.8% CPU use with 6 MPI tasks x no OpenMP threads

MPI task timing breakdown:
Section |  min time  |  avg time  |  max time  |%varavg| %total
---------------------------------------------------------------
Pair    | 971.5      | 1003.5     | 1038.4     |  90.9 | 83.56
Neigh   | 15.896     | 16.378     | 16.862     |  11.3 |  1.36
Comm    | 122.7      | 158.09     | 190.69     | 235.1 | 13.16
Output  | 0.0052906  | 0.010399   | 0.035628   |  11.1 |  0.00
Modify  | 18.607     | 19.059     | 19.601     |   8.8 |  1.59
Other   |            | 3.958      |            |       |  0.33

Nlocal:    85.3333 ave 88 max 83 min
Histogram: 1 0 2 0 0 0 1 0 1 1
Nghost:    473 ave 476 max 471 min
Histogram: 3 0 0 0 0 0 1 0 1 1
Neighs:    0 ave 0 max 0 min
Histogram: 6 0 0 0 0 0 0 0 0 0
FullNghs:  2083 ave 2190 max 2002 min
Histogram: 1 1 0 2 0 0 0 1 0 1

Total # of neighbors = 12498
Ave neighs/atom = 24.4102
Neighbor list builds = 108220
Dangerous builds = 0
Setting up Verlet run ...
  Unit style    : real
  Current step  : 2000000
  Time step     : 5
Per MPI rank memory allocation (min/avg/max) = 2.941 | 2.941 | 2.942 Mbytes
---------------- Step  2000000 ----- CPU =      0.0000 (sec) ----------------
Time     = 10000000.000000 Temp     = 272.534055 Press    = 1204.542160 
PotEng   = -8.666296 KinEng   = 0.810786 Lx       = 24.439090 
Ly       = 24.439090 Lz       = 24.439090 Density  = 1.049314 
Volume   = 14596.713999 
---------------- Step  2010000 ----- CPU =      5.8167 (sec) ----------------
Time     = 10050000.000000 Temp     = 274.928544 Press    = 1844.773362 
PotEng   = -8.646530 KinEng   = 0.817909 Lx       = 24.285812 
Ly       = 24.285812 Lz       = 24.285812 Density  = 1.069308 
Volume   = 14323.788217 
---------------- Step  2020000 ----- CPU =     11.7886 (sec) ----------------
Time     = 10100000.000000 Temp     = 264.766995 Press    = -107.858508 
PotEng   = -8.638289 KinEng   = 0.787679 Lx       = 24.364964 
Ly       = 24.364964 Lz       = 24.364964 Density  = 1.058920 
Volume   = 14464.296957 
---------------- Step  2030000 ----- CPU =     17.6799 (sec) ----------------
Time     = 10150000.000000 Temp     = 242.935125 Press    = 306.905260 
PotEng   = -8.642024 KinEng   = 0.722729 Lx       = 24.382660 
Ly       = 24.382660 Lz       = 24.382660 Density  = 1.056616 
Volume   = 14495.835603 
---------------- Step  2040000 ----- CPU =     23.6365 (sec) ----------------
Time     = 10200000.000000 Temp     = 258.987378 Press    = 1519.124182 
PotEng   = -8.686369 KinEng   = 0.770484 Lx       = 24.416586 
Ly       = 24.416586 Lz       = 24.416586 Density  = 1.052218 
Volume   = 14556.427569 
---------------- Step  2050000 ----- CPU =     29.6070 (sec) ----------------
Time     = 10250000.000000 Temp     = 264.788191 Press    = -273.360538 
PotEng   = -8.684216 KinEng   = 0.787742 Lx       = 24.492447 
Ly       = 24.492447 Lz       = 24.492447 Density  = 1.042471 
Volume   = 14692.527397 
---------------- Step  2060000 ----- CPU =     35.6565 (sec) ----------------
Time     = 10300000.000000 Temp     = 256.004970 Press    = 1299.863039 
PotEng   = -8.659005 KinEng   = 0.761612 Lx       = 24.384894 
Ly       = 24.384894 Lz       = 24.384894 Density  = 1.056326 
Volume   = 14499.820330 
---------------- Step  2070000 ----- CPU =     41.6465 (sec) ----------------
Time     = 10350000.000000 Temp     = 268.691773 Press    = 647.626700 
PotEng   = -8.588040 KinEng   = 0.799355 Lx       = 24.494876 
Ly       = 24.494876 Lz       = 24.494876 Density  = 1.042161 
Volume   = 14696.899345 
---------------- Step  2080000 ----- CPU =     47.6128 (sec) ----------------
Time     = 10400000.000000 Temp     = 276.317326 Press    = 416.008205 
PotEng   = -8.667625 KinEng   = 0.822041 Lx       = 24.518274 
Ly       = 24.518274 Lz       = 24.518274 Density  = 1.039180 
Volume   = 14739.057053 
---------------- Step  2090000 ----- CPU =     53.5394 (sec) ----------------
Time     = 10450000.000000 Temp     = 258.446253 Press    = 665.720555 
PotEng   = -8.678718 KinEng   = 0.768875 Lx       = 24.531274 
Ly       = 24.531274 Lz       = 24.531274 Density  = 1.037529 
Volume   = 14762.512702 
---------------- Step  2100000 ----- CPU =     59.5817 (sec) ----------------
Time     = 10500000.000000 Temp     = 264.809639 Press    = 542.861481 
PotEng   = -8.580959 KinEng   = 0.787806 Lx       = 24.336108 
Ly       = 24.336108 Lz       = 24.336108 Density  = 1.062691 
Volume   = 14412.965508 
---------------- Step  2110000 ----- CPU =     65.6665 (sec) ----------------
Time     = 10550000.000000 Temp     = 248.844820 Press    = 874.887657 
PotEng   = -8.597292 KinEng   = 0.740310 Lx       = 24.459563 
Ly       = 24.459563 Lz       = 24.459563 Density  = 1.046681 
Volume   = 14633.428785 
---------------- Step  2120000 ----- CPU =     71.6891 (sec) ----------------
Time     = 10600000.000000 Temp     = 262.701204 Press    = 994.200354 
PotEng   = -8.653656 KinEng   = 0.781533 Lx       = 24.412795 
Ly       = 24.412795 Lz       = 24.412795 Density  = 1.052708 
Volume   = 14549.648762 
---------------- Step  2130000 ----- CPU =     77.6833 (sec) ----------------
Time     = 10650000.000000 Temp     = 282.886536 Press    = 736.128806 
PotEng   = -8.620237 KinEng   = 0.841584 Lx       = 24.434538 
Ly       = 24.434538 Lz       = 24.434538 Density  = 1.049900 
Volume   = 14588.559706 
---------------- Step  2140000 ----- CPU =     83.7132 (sec) ----------------
Time     = 10700000.000000 Temp     = 250.681165 Press    = 2287.654772 
PotEng   = -8.668467 KinEng   = 0.745773 Lx       = 24.428489 
Ly       = 24.428489 Lz       = 24.428489 Density  = 1.050681 
Volume   = 14577.727494 
---------------- Step  2150000 ----- CPU =     89.6812 (sec) ----------------
Time     = 10750000.000000 Temp     = 267.127541 Press    = 1835.971269 
PotEng   = -8.593143 KinEng   = 0.794701 Lx       = 24.417611 
Ly       = 24.417611 Lz       = 24.417611 Density  = 1.052085 
Volume   = 14558.262157 
---------------- Step  2160000 ----- CPU =     95.7493 (sec) ----------------
Time     = 10800000.000000 Temp     = 263.909911 Press    = 558.434239 
PotEng   = -8.733346 KinEng   = 0.785129 Lx       = 24.379680 
Ly       = 24.379680 Lz       = 24.379680 Density  = 1.057004 
Volume   = 14490.521486 
---------------- Step  2170000 ----- CPU =    101.8050 (sec) ----------------
Time     = 10850000.000000 Temp     = 252.233131 Press    = 1507.232426 
PotEng   = -8.626469 KinEng   = 0.750391 Lx       = 24.392048 
Ly       = 24.392048 Lz       = 24.392048 Density  = 1.055397 
Volume   = 14512.585364 
---------------- Step  2180000 ----- CPU =    108.0594 (sec) ----------------
Time     = 10900000.000000 Temp     = 268.380926 Press    = 1503.065369 
PotEng   = -8.603390 KinEng   = 0.798430 Lx       = 24.570224 
Ly       = 24.570224 Lz       = 24.570224 Density  = 1.032603 
Volume   = 14832.942981 
---------------- Step  2190000 ----- CPU =    114.1256 (sec) ----------------
Time     = 10950000.000000 Temp     = 258.232393 Press    = 1867.748828 
PotEng   = -8.632750 KinEng   = 0.768238 Lx       = 24.478048 
Ly       = 24.478048 Lz       = 24.478048 Density  = 1.044312 
Volume   = 14666.630801 
---------------- Step  2200000 ----- CPU =    120.2702 (sec) ----------------
Time     = 11000000.000000 Temp     = 254.518356 Press    = 664.779783 
PotEng   = -8.687053 KinEng   = 0.757189 Lx       = 24.499051 
Ly       = 24.499051 Lz       = 24.499051 Density  = 1.041628 
Volume   = 14704.415819 
---------------- Step  2210000 ----- CPU =    126.2958 (sec) ----------------
Time     = 11050000.000000 Temp     = 277.304059 Press    = 1197.758933 
PotEng   = -8.644462 KinEng   = 0.824976 Lx       = 24.420312 
Ly       = 24.420312 Lz       = 24.420312 Density  = 1.051736 
Volume   = 14563.092725 
---------------- Step  2220000 ----- CPU =    132.2313 (sec) ----------------
Time     = 11100000.000000 Temp     = 253.687101 Press    = 1149.798302 
PotEng   = -8.692368 KinEng   = 0.754716 Lx       = 24.376398 
Ly       = 24.376398 Lz       = 24.376398 Density  = 1.057431 
Volume   = 14484.669372 
---------------- Step  2230000 ----- CPU =    138.2691 (sec) ----------------
Time     = 11150000.000000 Temp     = 269.420353 Press    = -213.104164 
PotEng   = -8.711133 KinEng   = 0.801522 Lx       = 24.443658 
Ly       = 24.443658 Lz       = 24.443658 Density  = 1.048726 
Volume   = 14604.901160 
---------------- Step  2240000 ----- CPU =    144.1080 (sec) ----------------
Time     = 11200000.000000 Temp     = 249.708250 Press    = 469.702708 
PotEng   = -8.657814 KinEng   = 0.742879 Lx       = 24.476591 
Ly       = 24.476591 Lz       = 24.476591 Density  = 1.044498 
Volume   = 14664.011506 
---------------- Step  2250000 ----- CPU =    150.2058 (sec) ----------------
Time     = 11250000.000000 Temp     = 257.881490 Press    = 571.243952 
PotEng   = -8.633259 KinEng   = 0.767194 Lx       = 24.439115 
Ly       = 24.439115 Lz       = 24.439115 Density  = 1.049311 
Volume   = 14596.759314 
---------------- Step  2260000 ----- CPU =    156.1861 (sec) ----------------
Time     = 11300000.000000 Temp     = 260.698115 Press    = 1459.591116 
PotEng   = -8.682517 KinEng   = 0.775574 Lx       = 24.455998 
Ly       = 24.455998 Lz       = 24.455998 Density  = 1.047139 
Volume   = 14627.030644 
---------------- Step  2270000 ----- CPU =    162.1101 (sec) ----------------
Time     = 11350000.000000 Temp     = 278.325263 Press    = 487.385106 
PotEng   = -8.643076 KinEng   = 0.828014 Lx       = 24.533642 
Ly       = 24.533642 Lz       = 24.533642 Density  = 1.037229 
Volume   = 14766.788743 
---------------- Step  2280000 ----- CPU =    168.1319 (sec) ----------------
Time     = 11400000.000000 Temp     = 262.832198 Press    = 689.975983 
PotEng   = -8.701690 KinEng   = 0.781923 Lx       = 24.436043 
Ly       = 24.436043 Lz       = 24.436043 Density  = 1.049706 
Volume   = 14591.254505 
---------------- Step  2290000 ----- CPU =    174.1384 (sec) ----------------
Time     = 11450000.000000 Temp     = 234.616582 Press    = 51.720154 
PotEng   = -8.662979 KinEng   = 0.697982 Lx       = 24.352952 
Ly       = 24.352952 Lz       = 24.352952 Density  = 1.060488 
Volume   = 14442.914220 
---------------- Step  2300000 ----- CPU =    180.3516 (sec) ----------------
Time     = 11500000.000000 Temp     = 252.857081 Press    = 876.349417 
PotEng   = -8.682004 KinEng   = 0.752247 Lx       = 24.494548 
Ly       = 24.494548 Lz       = 24.494548 Density  = 1.042203 
Volume   = 14696.309668 
---------------- Step  2310000 ----- CPU =    186.2835 (sec) ----------------
Time     = 11550000.000000 Temp     = 266.450672 Press    = 1362.336094 
PotEng   = -8.659041 KinEng   = 0.792688 Lx       = 24.468480 
Ly       = 24.468480 Lz       = 24.468480 Density  = 1.045537 
Volume   = 14649.437753 
---------------- Step  2320000 ----- CPU =    192.2153 (sec) ----------------
Time     = 11600000.000000 Temp     = 257.271386 Press    = 662.634518 
PotEng   = -8.668062 KinEng   = 0.765379 Lx       = 24.512607 
Ly       = 24.512607 Lz       = 24.512607 Density  = 1.039901 
Volume   = 14728.837861 
---------------- Step  2330000 ----- CPU =    198.0619 (sec) ----------------
Time     = 11650000.000000 Temp     = 268.700002 Press    = 1018.491363 
PotEng   = -8.636772 KinEng   = 0.799379 Lx       = 24.560241 
Ly       = 24.560241 Lz       = 24.560241 Density  = 1.033862 
Volume   = 14814.870438 
---------------- Step  2340000 ----- CPU =    204.0676 (sec) ----------------
Time     = 11700000.000000 Temp     = 250.732912 Press    = 1999.118955 
PotEng   = -8.676864 KinEng   = 0.745927 Lx       = 24.349020 
Ly       = 24.349020 Lz       = 24.349020 Density  = 1.061002 
Volume   = 14435.919340 
---------------- Step  2350000 ----- CPU =    210.1581 (sec) ----------------
Time     = 11750000.000000 Temp     = 272.027166 Press    = 1473.937065 
PotEng   = -8.659405 KinEng   = 0.809278 Lx       = 24.333653 
Ly       = 24.333653 Lz       = 24.333653 Density  = 1.063013 
Volume   = 14408.605092 
---------------- Step  2360000 ----- CPU =    216.1257 (sec) ----------------
Time     = 11800000.000000 Temp     = 254.491402 Press    = 1850.139549 
PotEng   = -8.732706 KinEng   = 0.757109 Lx       = 24.471875 
Ly       = 24.471875 Lz       = 24.471875 Density  = 1.045102 
Volume   = 14655.537595 
---------------- Step  2370000 ----- CPU =    222.0802 (sec) ----------------
Time     = 11850000.000000 Temp     = 278.517555 Press    = 1514.909319 
PotEng   = -8.689868 KinEng   = 0.828586 Lx       = 24.439560 
Ly       = 24.439560 Lz       = 24.439560 Density  = 1.049253 
Volume   = 14597.555634 
---------------- Step  2380000 ----- CPU =    228.1328 (sec) ----------------
Time     = 11900000.000000 Temp     = 250.340499 Press    = 751.171293 
PotEng   = -8.750776 KinEng   = 0.744760 Lx       = 24.434095 
Ly       = 24.434095 Lz       = 24.434095 Density  = 1.049958 
Volume   = 14587.764930 
---------------- Step  2390000 ----- CPU =    234.1417 (sec) ----------------
Time     = 11950000.000000 Temp     = 259.080280 Press    = 719.248849 
PotEng   = -8.624141 KinEng   = 0.770761 Lx       = 24.440584 
Ly       = 24.440584 Lz       = 24.440584 Density  = 1.049122 
Volume   = 14599.390387 
---------------- Step  2400000 ----- CPU =    240.1289 (sec) ----------------
Time     = 12000000.000000 Temp     = 273.731316 Press    = 109.066635 
PotEng   = -8.613376 KinEng   = 0.814347 Lx       = 24.603305 
Ly       = 24.603305 Lz       = 24.603305 Density  = 1.028443 
Volume   = 14892.936623 
---------------- Step  2410000 ----- CPU =    246.1676 (sec) ----------------
Time     = 12050000.000000 Temp     = 266.096025 Press    = 1713.090186 
PotEng   = -8.660673 KinEng   = 0.791633 Lx       = 24.554179 
Ly       = 24.554179 Lz       = 24.554179 Density  = 1.034628 
Volume   = 14803.902984 
---------------- Step  2420000 ----- CPU =    252.0804 (sec) ----------------
Time     = 12100000.000000 Temp     = 266.504941 Press    = 429.321058 
PotEng   = -8.617861 KinEng   = 0.792849 Lx       = 24.463558 
Ly       = 24.463558 Lz       = 24.463558 Density  = 1.046168 
Volume   = 14640.600481 
---------------- Step  2430000 ----- CPU =    258.0406 (sec) ----------------
Time     = 12150000.000000 Temp     = 274.885246 Press    = 1326.501119 
PotEng   = -8.640249 KinEng   = 0.817780 Lx       = 24.404222 
Ly       = 24.404222 Lz       = 24.404222 Density  = 1.053818 
Volume   = 14534.326586 
---------------- Step  2440000 ----- CPU =    264.1198 (sec) ----------------
Time     = 12200000.000000 Temp     = 254.672846 Press    = 359.684731 
PotEng   = -8.719155 KinEng   = 0.757649 Lx       = 24.482819 
Ly       = 24.482819 Lz       = 24.482819 Density  = 1.043701 
Volume   = 14675.208217 
---------------- Step  2450000 ----- CPU =    270.2139 (sec) ----------------
Time     = 12250000.000000 Temp     = 271.913382 Press    = 409.297292 
PotEng   = -8.670003 KinEng   = 0.808939 Lx       = 24.526967 
Ly       = 24.526967 Lz       = 24.526967 Density  = 1.038076 
Volume   = 14754.739064 
---------------- Step  2460000 ----- CPU =    276.1686 (sec) ----------------
Time     = 12300000.000000 Temp     = 252.979455 Press    = 939.770074 
PotEng   = -8.674430 KinEng   = 0.752611 Lx       = 24.583972 
Ly       = 24.583972 Lz       = 24.583972 Density  = 1.030871 
Volume   = 14857.856876 
---------------- Step  2470000 ----- CPU =    282.0575 (sec) ----------------
Time     = 12350000.000000 Temp     = 261.648146 Press    = 1252.329886 
PotEng   = -8.655933 KinEng   = 0.778400 Lx       = 24.396926 
Ly       = 24.396926 Lz       = 24.396926 Density  = 1.054764 
Volume   = 14521.294527 
---------------- Step  2480000 ----- CPU =    288.1834 (sec) ----------------
Time     = 12400000.000000 Temp     = 261.310516 Press    = 1148.584441 
PotEng   = -8.683224 KinEng   = 0.777396 Lx       = 24.393249 
Ly       = 24.393249 Lz       = 24.393249 Density  = 1.055241 
Volume   = 14514.729720 
---------------- Step  2490000 ----- CPU =    294.2996 (sec) ----------------
Time     = 12450000.000000 Temp     = 269.430874 Press    = -101.431958 
PotEng   = -8.670927 KinEng   = 0.801554 Lx       = 24.444754 
Ly       = 24.444754 Lz       = 24.444754 Density  = 1.048585 
Volume   = 14606.864190 
---------------- Step  2500000 ----- CPU =    300.3912 (sec) ----------------
Time     = 12500000.000000 Temp     = 251.218945 Press    = 678.114289 
PotEng   = -8.679261 KinEng   = 0.747373 Lx       = 24.595067 
Ly       = 24.595067 Lz       = 24.595067 Density  = 1.029477 
Volume   = 14877.981403 
---------------- Step  2510000 ----- CPU =    306.3156 (sec) ----------------
Time     = 12550000.000000 Temp     = 277.894293 Press    = 667.394278 
PotEng   = -8.692700 KinEng   = 0.826732 Lx       = 24.567245 
Ly       = 24.567245 Lz       = 24.567245 Density  = 1.032978 
Volume   = 14827.548754 
---------------- Step  2520000 ----- CPU =    312.2959 (sec) ----------------
Time     = 12600000.000000 Temp     = 261.740411 Press    = 1127.832954 
PotEng   = -8.718788 KinEng   = 0.778675 Lx       = 24.316098 
Ly       = 24.316098 Lz       = 24.316098 Density  = 1.065317 
Volume   = 14377.443113 
---------------- Step  2530000 ----- CPU =    318.2839 (sec) ----------------
Time     = 12650000.000000 Temp     = 270.615490 Press    = 437.536930 
PotEng   = -8.644609 KinEng   = 0.805078 Lx       = 24.575906 
Ly       = 24.575906 Lz       = 24.575906 Density  = 1.031886 
Volume   = 14843.237008 
---------------- Step  2540000 ----- CPU =    324.2123 (sec) ----------------
Time     = 12700000.000000 Temp     = 269.734206 Press    = 2113.059364 
PotEng   = -8.653017 KinEng   = 0.802456 Lx       = 24.495441 
Ly       = 24.495441 Lz       = 24.495441 Density  = 1.042089 
Volume   = 14697.916481 
---------------- Step  2550000 ----- CPU =    330.4035 (sec) ----------------
Time     = 12750000.000000 Temp     = 265.545883 Press    = 1945.086639 
PotEng   = -8.692646 KinEng   = 0.789996 Lx       = 24.471908 
Ly       = 24.471908 Lz       = 24.471908 Density  = 1.045098 
Volume   = 14655.597184 
---------------- Step  2560000 ----- CPU =    336.4454 (sec) ----------------
Time     = 12800000.000000 Temp     = 263.584985 Press    = 1858.040055 
PotEng   = -8.695647 KinEng   = 0.784162 Lx       = 24.453488 
Ly       = 24.453488 Lz       = 24.453488 Density  = 1.047461 
Volume   = 14622.528011 
---------------- Step  2570000 ----- CPU =    342.6061 (sec) ----------------
Time     = 12850000.000000 Temp     = 274.915641 Press    = 631.811264 
PotEng   = -8.663212 KinEng   = 0.817871 Lx       = 24.431669 
Ly       = 24.431669 Lz       = 24.431669 Density  = 1.050270 
Volume   = 14583.421287 
[...]
PotEng   = -8.659492 KinEng   = 0.741022 Lx       = 24.502176 
Ly       = 24.502176 Lz       = 24.502176 Density  = 1.041230 
Volume   = 14710.043506 
---------------- Step  3390000 ----- CPU =    834.9874 (sec) ----------------
Time     = 16950000.000000 Temp     = 263.617867 Press    = 1225.546499 
PotEng   = -8.680827 KinEng   = 0.784260 Lx       = 24.546357 
Ly       = 24.546357 Lz       = 24.546357 Density  = 1.035617 
Volume   = 14789.760517 
---------------- Step  3400000 ----- CPU =    841.0890 (sec) ----------------
Time     = 17000000.000000 Temp     = 251.029541 Press    = 1403.562445 
PotEng   = -8.663321 KinEng   = 0.746810 Lx       = 24.404085 
Ly       = 24.404085 Lz       = 24.404085 Density  = 1.053836 
Volume   = 14534.081378 
---------------- Step  3410000 ----- CPU =    846.9745 (sec) ----------------
Time     = 17050000.000000 Temp     = 257.311890 Press    = 942.656026 
PotEng   = -8.669432 KinEng   = 0.765500 Lx       = 24.537627 
Ly       = 24.537627 Lz       = 24.537627 Density  = 1.036723 
Volume   = 14773.986656 
---------------- Step  3420000 ----- CPU =    852.9415 (sec) ----------------
Time     = 17100000.000000 Temp     = 276.149970 Press    = 1612.478653 
PotEng   = -8.677840 KinEng   = 0.821543 Lx       = 24.575288 
Ly       = 24.575288 Lz       = 24.575288 Density  = 1.031964 
Volume   = 14842.116320 
---------------- Step  3430000 ----- CPU =    858.8583 (sec) ----------------
Time     = 17150000.000000 Temp     = 257.466001 Press    = 1383.789913 
PotEng   = -8.660795 KinEng   = 0.765958 Lx       = 24.498882 
Ly       = 24.498882 Lz       = 24.498882 Density  = 1.041650 
Volume   = 14704.112283 
---------------- Step  3440000 ----- CPU =    864.7664 (sec) ----------------
Time     = 17200000.000000 Temp     = 247.254845 Press    = 830.738777 
PotEng   = -8.657219 KinEng   = 0.735580 Lx       = 24.324409 
Ly       = 24.324409 Lz       = 24.324409 Density  = 1.064225 
Volume   = 14392.190230 
---------------- Step  3450000 ----- CPU =    870.9591 (sec) ----------------
Time     = 17250000.000000 Temp     = 270.591149 Press    = 1160.083038 
PotEng   = -8.666506 KinEng   = 0.805005 Lx       = 24.423285 
Ly       = 24.423285 Lz       = 24.423285 Density  = 1.051352 
Volume   = 14568.411851 
---------------- Step  3460000 ----- CPU =    877.0356 (sec) ----------------
Time     = 17300000.000000 Temp     = 275.238482 Press    = 132.512693 
PotEng   = -8.674695 KinEng   = 0.818831 Lx       = 24.507027 
Ly       = 24.507027 Lz       = 24.507027 Density  = 1.040612 
Volume   = 14718.782557 
---------------- Step  3470000 ----- CPU =    883.0813 (sec) ----------------
Time     = 17350000.000000 Temp     = 262.230783 Press    = 1558.770313 
PotEng   = -8.673493 KinEng   = 0.780133 Lx       = 24.350131 
Ly       = 24.350131 Lz       = 24.350131 Density  = 1.060856 
Volume   = 14437.895439 
---------------- Step  3480000 ----- CPU =    889.0384 (sec) ----------------
Time     = 17400000.000000 Temp     = 253.885609 Press    = 1045.115450 
PotEng   = -8.699285 KinEng   = 0.755307 Lx       = 24.442759 
Ly       = 24.442759 Lz       = 24.442759 Density  = 1.048841 
Volume   = 14603.289001 
---------------- Step  3490000 ----- CPU =    895.0505 (sec) ----------------
Time     = 17450000.000000 Temp     = 262.947217 Press    = -84.486484 
PotEng   = -8.659386 KinEng   = 0.782265 Lx       = 24.428874 
Ly       = 24.428874 Lz       = 24.428874 Density  = 1.050631 
Volume   = 14578.415613 
---------------- Step  3500000 ----- CPU =    901.0199 (sec) ----------------
Time     = 17500000.000000 Temp     = 272.405124 Press    = 999.733733 
PotEng   = -8.597124 KinEng   = 0.810402 Lx       = 24.549556 
Ly       = 24.549556 Lz       = 24.549556 Density  = 1.035213 
Volume   = 14795.542954 
---------------- Step  3510000 ----- CPU =    907.1126 (sec) ----------------
Time     = 17550000.000000 Temp     = 261.273107 Press    = 595.396927 
PotEng   = -8.648430 KinEng   = 0.777284 Lx       = 24.573203 
Ly       = 24.573203 Lz       = 24.573203 Density  = 1.032227 
Volume   = 14838.339622 
---------------- Step  3520000 ----- CPU =    913.1534 (sec) ----------------
Time     = 17600000.000000 Temp     = 252.897075 Press    = 676.898607 
PotEng   = -8.669981 KinEng   = 0.752366 Lx       = 24.379063 
Ly       = 24.379063 Lz       = 24.379063 Density  = 1.057084 
Volume   = 14489.420492 
---------------- Step  3530000 ----- CPU =    919.2215 (sec) ----------------
Time     = 17650000.000000 Temp     = 241.216524 Press    = 516.869630 
PotEng   = -8.611601 KinEng   = 0.717616 Lx       = 24.345698 
Ly       = 24.345698 Lz       = 24.345698 Density  = 1.061436 
Volume   = 14430.012659 
---------------- Step  3540000 ----- CPU =    925.1895 (sec) ----------------
Time     = 17700000.000000 Temp     = 256.827851 Press    = 1262.039726 
PotEng   = -8.675718 KinEng   = 0.764060 Lx       = 24.403891 
Ly       = 24.403891 Lz       = 24.403891 Density  = 1.053861 
Volume   = 14533.734480 
---------------- Step  3550000 ----- CPU =    931.1478 (sec) ----------------
Time     = 17750000.000000 Temp     = 255.906492 Press    = 1050.548699 
PotEng   = -8.691290 KinEng   = 0.761319 Lx       = 24.479938 
Ly       = 24.479938 Lz       = 24.479938 Density  = 1.044070 
Volume   = 14670.028069 
---------------- Step  3560000 ----- CPU =    937.1879 (sec) ----------------
Time     = 17800000.000000 Temp     = 258.079800 Press    = 2264.561891 
PotEng   = -8.691592 KinEng   = 0.767784 Lx       = 24.468009 
Ly       = 24.468009 Lz       = 24.468009 Density  = 1.045598 
Volume   = 14648.592315 
---------------- Step  3570000 ----- CPU =    943.1558 (sec) ----------------
Time     = 17850000.000000 Temp     = 271.379098 Press    = 1487.324483 
PotEng   = -8.679755 KinEng   = 0.807350 Lx       = 24.471748 
Ly       = 24.471748 Lz       = 24.471748 Density  = 1.045119 
Volume   = 14655.308954 
---------------- Step  3580000 ----- CPU =    949.2831 (sec) ----------------
Time     = 17900000.000000 Temp     = 259.597527 Press    = 1471.833845 
PotEng   = -8.686734 KinEng   = 0.772300 Lx       = 24.426231 
Ly       = 24.426231 Lz       = 24.426231 Density  = 1.050972 
Volume   = 14573.684469 
---------------- Step  3590000 ----- CPU =    955.3078 (sec) ----------------
Time     = 17950000.000000 Temp     = 245.957808 Press    = 687.968160 
PotEng   = -8.679473 KinEng   = 0.731722 Lx       = 24.446079 
Ly       = 24.446079 Lz       = 24.446079 Density  = 1.048414 
Volume   = 14609.240845 
---------------- Step  3600000 ----- CPU =    961.2766 (sec) ----------------
Time     = 18000000.000000 Temp     = 260.690011 Press    = 2047.737573 
PotEng   = -8.724085 KinEng   = 0.775550 Lx       = 24.473857 
Ly       = 24.473857 Lz       = 24.473857 Density  = 1.044848 
Volume   = 14659.097776 
---------------- Step  3610000 ----- CPU =    967.2723 (sec) ----------------
Time     = 18050000.000000 Temp     = 252.367870 Press    = 734.820956 
PotEng   = -8.722503 KinEng   = 0.750791 Lx       = 24.545608 
Ly       = 24.545608 Lz       = 24.545608 Density  = 1.035712 
Volume   = 14788.406698 
---------------- Step  3620000 ----- CPU =    973.3563 (sec) ----------------
Time     = 18100000.000000 Temp     = 244.966802 Press    = 674.056233 
PotEng   = -8.673772 KinEng   = 0.728773 Lx       = 24.370769 
Ly       = 24.370769 Lz       = 24.370769 Density  = 1.058164 
Volume   = 14474.636769 
---------------- Step  3630000 ----- CPU =    979.3460 (sec) ----------------
Time     = 18150000.000000 Temp     = 259.587446 Press    = 1029.340257 
PotEng   = -8.619194 KinEng   = 0.772270 Lx       = 24.469593 
Ly       = 24.469593 Lz       = 24.469593 Density  = 1.045395 
Volume   = 14651.437969 
---------------- Step  3640000 ----- CPU =    985.3029 (sec) ----------------
Time     = 18200000.000000 Temp     = 251.350304 Press    = 2419.977407 
PotEng   = -8.733856 KinEng   = 0.747764 Lx       = 24.572543 
Ly       = 24.572543 Lz       = 24.572543 Density  = 1.032310 
Volume   = 14837.143816 
---------------- Step  3650000 ----- CPU =    991.3168 (sec) ----------------
Time     = 18250000.000000 Temp     = 257.717052 Press    = 1790.313174 
PotEng   = -8.635459 KinEng   = 0.766705 Lx       = 24.505419 
Ly       = 24.505419 Lz       = 24.505419 Density  = 1.040816 
Volume   = 14715.886275 
---------------- Step  3660000 ----- CPU =    997.2651 (sec) ----------------
Time     = 18300000.000000 Temp     = 253.714395 Press    = 616.630999 
PotEng   = -8.681036 KinEng   = 0.754797 Lx       = 24.437297 
Ly       = 24.437297 Lz       = 24.437297 Density  = 1.049545 
Volume   = 14593.501874 
---------------- Step  3670000 ----- CPU =   1003.2386 (sec) ----------------
Time     = 18350000.000000 Temp     = 258.970682 Press    = 872.806759 
PotEng   = -8.708392 KinEng   = 0.770435 Lx       = 24.461112 
Ly       = 24.461112 Lz       = 24.461112 Density  = 1.046482 
Volume   = 14636.209054 
---------------- Step  3680000 ----- CPU =   1009.2890 (sec) ----------------
Time     = 18400000.000000 Temp     = 267.519850 Press    = 10.361286 
PotEng   = -8.687429 KinEng   = 0.795868 Lx       = 24.457148 
Ly       = 24.457148 Lz       = 24.457148 Density  = 1.046991 
Volume   = 14629.093623 
---------------- Step  3690000 ----- CPU =   1015.3186 (sec) ----------------
Time     = 18450000.000000 Temp     = 258.294394 Press    = 1150.212518 
PotEng   = -8.701214 KinEng   = 0.768423 Lx       = 24.513071 
Ly       = 24.513071 Lz       = 24.513071 Density  = 1.039842 
Volume   = 14729.675206 
---------------- Step  3700000 ----- CPU =   1021.1474 (sec) ----------------
Time     = 18500000.000000 Temp     = 267.788845 Press    = 2096.947765 
PotEng   = -8.701844 KinEng   = 0.796669 Lx       = 24.525167 
Ly       = 24.525167 Lz       = 24.525167 Density  = 1.038304 
Volume   = 14751.490259 
---------------- Step  3710000 ----- CPU =   1027.1588 (sec) ----------------
Time     = 18550000.000000 Temp     = 260.081902 Press    = 831.116603 
PotEng   = -8.673797 KinEng   = 0.773741 Lx       = 24.516356 
Ly       = 24.516356 Lz       = 24.516356 Density  = 1.039424 
Volume   = 14735.597998 
---------------- Step  3720000 ----- CPU =   1033.0960 (sec) ----------------
Time     = 18600000.000000 Temp     = 260.631810 Press    = 1174.517901 
PotEng   = -8.674156 KinEng   = 0.775377 Lx       = 24.343862 
Ly       = 24.343862 Lz       = 24.343862 Density  = 1.061676 
Volume   = 14426.747825 
---------------- Step  3730000 ----- CPU =   1039.0728 (sec) ----------------
Time     = 18650000.000000 Temp     = 255.708256 Press    = 821.980004 
PotEng   = -8.675868 KinEng   = 0.760729 Lx       = 24.464043 
Ly       = 24.464043 Lz       = 24.464043 Density  = 1.046106 
Volume   = 14641.470524 
---------------- Step  3740000 ----- CPU =   1045.0224 (sec) ----------------
Time     = 18700000.000000 Temp     = 252.304923 Press    = 401.513036 
PotEng   = -8.681015 KinEng   = 0.750604 Lx       = 24.523538 
Ly       = 24.523538 Lz       = 24.523538 Density  = 1.038511 
Volume   = 14748.550901 
---------------- Step  3750000 ----- CPU =   1051.0997 (sec) ----------------
Time     = 18750000.000000 Temp     = 245.618735 Press    = 453.446364 
PotEng   = -8.718675 KinEng   = 0.730713 Lx       = 24.484404 
Ly       = 24.484404 Lz       = 24.484404 Density  = 1.043499 
Volume   = 14678.057566 
---------------- Step  3760000 ----- CPU =   1057.0756 (sec) ----------------
Time     = 18800000.000000 Temp     = 249.807623 Press    = 880.330417 
PotEng   = -8.637458 KinEng   = 0.743175 Lx       = 24.375714 
Ly       = 24.375714 Lz       = 24.375714 Density  = 1.057520 
Volume   = 14483.451228 
---------------- Step  3770000 ----- CPU =   1063.0670 (sec) ----------------
Time     = 18850000.000000 Temp     = 276.300179 Press    = 613.274274 
PotEng   = -8.631205 KinEng   = 0.821990 Lx       = 24.338152 
Ly       = 24.338152 Lz       = 24.338152 Density  = 1.062424 
Volume   = 14416.599156 
---------------- Step  3780000 ----- CPU =   1069.0810 (sec) ----------------
Time     = 18900000.000000 Temp     = 267.837654 Press    = 195.618508 
PotEng   = -8.652084 KinEng   = 0.796814 Lx       = 24.423761 
Ly       = 24.423761 Lz       = 24.423761 Density  = 1.051291 
Volume   = 14569.264201 
---------------- Step  3790000 ----- CPU =   1075.1877 (sec) ----------------
Time     = 18950000.000000 Temp     = 242.932480 Press    = 1352.201817 
PotEng   = -8.628841 KinEng   = 0.722721 Lx       = 24.435483 
Ly       = 24.435483 Lz       = 24.435483 Density  = 1.049779 
Volume   = 14590.252551 
---------------- Step  3800000 ----- CPU =   1081.1641 (sec) ----------------
Time     = 19000000.000000 Temp     = 247.170342 Press    = 705.091204 
PotEng   = -8.664557 KinEng   = 0.735329 Lx       = 24.654427 
Ly       = 24.654427 Lz       = 24.654427 Density  = 1.022059 
Volume   = 14985.965992 
---------------- Step  3810000 ----- CPU =   1087.2090 (sec) ----------------
Time     = 19050000.000000 Temp     = 249.074458 Press    = 458.240168 
PotEng   = -8.642119 KinEng   = 0.740994 Lx       = 24.534875 
Ly       = 24.534875 Lz       = 24.534875 Density  = 1.037072 
Volume   = 14769.016359 
---------------- Step  3820000 ----- CPU =   1093.2589 (sec) ----------------
Time     = 19100000.000000 Temp     = 246.324855 Press    = 387.385256 
PotEng   = -8.653232 KinEng   = 0.732814 Lx       = 24.390748 
Ly       = 24.390748 Lz       = 24.390748 Density  = 1.055565 
Volume   = 14510.265799 
---------------- Step  3830000 ----- CPU =   1099.3102 (sec) ----------------
Time     = 19150000.000000 Temp     = 245.057439 Press    = 1333.349530 
PotEng   = -8.652806 KinEng   = 0.729043 Lx       = 24.432873 
Ly       = 24.432873 Lz       = 24.432873 Density  = 1.050115 
Volume   = 14585.576948 
---------------- Step  3840000 ----- CPU =   1105.2617 (sec) ----------------
Time     = 19200000.000000 Temp     = 243.721957 Press    = 1898.228951 
PotEng   = -8.645466 KinEng   = 0.725070 Lx       = 24.544518 
Ly       = 24.544518 Lz       = 24.544518 Density  = 1.035850 
Volume   = 14786.435886 
---------------- Step  3850000 ----- CPU =   1111.2359 (sec) ----------------
Time     = 19250000.000000 Temp     = 264.852756 Press    = 2058.610884 
PotEng   = -8.654292 KinEng   = 0.787934 Lx       = 24.391199 
Ly       = 24.391199 Lz       = 24.391199 Density  = 1.055507 
Volume   = 14511.070879 
---------------- Step  3860000 ----- CPU =   1117.2414 (sec) ----------------
Time     = 19300000.000000 Temp     = 247.395135 Press    = 387.548739 
PotEng   = -8.641818 KinEng   = 0.735998 Lx       = 24.300605 
Ly       = 24.300605 Lz       = 24.300605 Density  = 1.067356 
Volume   = 14349.978509 
---------------- Step  3870000 ----- CPU =   1123.3194 (sec) ----------------
Time     = 19350000.000000 Temp     = 269.014066 Press    = 54.871300 
PotEng   = -8.672928 KinEng   = 0.800314 Lx       = 24.298716 
Ly       = 24.298716 Lz       = 24.298716 Density  = 1.067605 
Volume   = 14346.632559 
---------------- Step  3880000 ----- CPU =   1129.3367 (sec) ----------------
Time     = 19400000.000000 Temp     = 269.116475 Press    = 1964.328763 
PotEng   = -8.633197 KinEng   = 0.800618 Lx       = 24.367778 
Ly       = 24.367778 Lz       = 24.367778 Density  = 1.058553 
Volume   = 14469.308877 
---------------- Step  3890000 ----- CPU =   1135.4510 (sec) ----------------
Time     = 19450000.000000 Temp     = 279.741678 Press    = 1692.940873 
PotEng   = -8.670106 KinEng   = 0.832228 Lx       = 24.360094 
Ly       = 24.360094 Lz       = 24.360094 Density  = 1.059555 
Volume   = 14455.625832 
---------------- Step  3900000 ----- CPU =   1142.6858 (sec) ----------------
Time     = 19500000.000000 Temp     = 266.881834 Press    = 540.874324 
PotEng   = -8.694918 KinEng   = 0.793970 Lx       = 24.552958 
Ly       = 24.552958 Lz       = 24.552958 Density  = 1.034782 
Volume   = 14801.696000 
---------------- Step  3910000 ----- CPU =   1148.6573 (sec) ----------------
Time     = 19550000.000000 Temp     = 265.762735 Press    = 1315.460512 
PotEng   = -8.644782 KinEng   = 0.790641 Lx       = 24.365948 
Ly       = 24.365948 Lz       = 24.365948 Density  = 1.058792 
Volume   = 14466.049734 
---------------- Step  3920000 ----- CPU =   1154.6103 (sec) ----------------
Time     = 19600000.000000 Temp     = 253.171360 Press    = 762.747102 
PotEng   = -8.688089 KinEng   = 0.753182 Lx       = 24.380143 
Ly       = 24.380143 Lz       = 24.380143 Density  = 1.056943 
Volume   = 14491.346858 
---------------- Step  3930000 ----- CPU =   1160.5339 (sec) ----------------
Time     = 19650000.000000 Temp     = 282.377616 Press    = 664.287156 
PotEng   = -8.719023 KinEng   = 0.840070 Lx       = 24.422711 
Ly       = 24.422711 Lz       = 24.422711 Density  = 1.051427 
Volume   = 14567.385064 
---------------- Step  3940000 ----- CPU =   1166.5676 (sec) ----------------
Time     = 19700000.000000 Temp     = 233.491757 Press    = 345.121133 
PotEng   = -8.702175 KinEng   = 0.694635 Lx       = 24.430178 
Ly       = 24.430178 Lz       = 24.430178 Density  = 1.050463 
Volume   = 14580.751571 
---------------- Step  3950000 ----- CPU =   1172.6664 (sec) ----------------
Time     = 19750000.000000 Temp     = 255.228373 Press    = 325.968826 
PotEng   = -8.671223 KinEng   = 0.759301 Lx       = 24.432177 
Ly       = 24.432177 Lz       = 24.432177 Density  = 1.050205 
Volume   = 14584.329976 
---------------- Step  3960000 ----- CPU =   1178.6703 (sec) ----------------
Time     = 19800000.000000 Temp     = 257.578082 Press    = 1563.607040 
PotEng   = -8.699957 KinEng   = 0.766292 Lx       = 24.465617 
Ly       = 24.465617 Lz       = 24.465617 Density  = 1.045904 
Volume   = 14644.296013 
---------------- Step  3970000 ----- CPU =   1184.5761 (sec) ----------------
Time     = 19850000.000000 Temp     = 273.145974 Press    = 1142.063649 
PotEng   = -8.662133 KinEng   = 0.812606 Lx       = 24.396705 
Ly       = 24.396705 Lz       = 24.396705 Density  = 1.054792 
Volume   = 14520.898867 
---------------- Step  3980000 ----- CPU =   1190.5859 (sec) ----------------
Time     = 19900000.000000 Temp     = 249.308199 Press    = 1439.606738 
PotEng   = -8.636271 KinEng   = 0.741689 Lx       = 24.441971 
Ly       = 24.441971 Lz       = 24.441971 Density  = 1.048943 
Volume   = 14601.876326 
---------------- Step  3990000 ----- CPU =   1196.5472 (sec) ----------------
Time     = 19950000.000000 Temp     = 262.404135 Press    = 719.949083 
PotEng   = -8.657331 KinEng   = 0.780649 Lx       = 24.539059 
Ly       = 24.539059 Lz       = 24.539059 Density  = 1.036542 
Volume   = 14776.572579 
---------------- Step  4000000 ----- CPU =   1202.5105 (sec) ----------------
Time     = 20000000.000000 Temp     = 275.610326 Press    = 1247.222011 
PotEng   = -8.699850 KinEng   = 0.819937 Lx       = 24.412315 
Ly       = 24.412315 Lz       = 24.412315 Density  = 1.052770 
Volume   = 14548.791204 
Loop time of 1202.51 on 6 procs for 2000000 steps with 512 atoms

Performance: 718.497 ns/day, 0.033 hours/ns, 1663.188 timesteps/s
99.7% CPU use with 6 MPI tasks x no OpenMP threads

MPI task timing breakdown:
Section |  min time  |  avg time  |  max time  |%varavg| %total
---------------------------------------------------------------
Pair    | 973.04     | 1004       | 1033.8     |  83.0 | 83.49
Neigh   | 15.948     | 16.394     | 16.825     |  10.4 |  1.36
Comm    | 127.03     | 157.37     | 188.88     | 215.5 | 13.09
Output  | 0.0054355  | 0.0099684  | 0.032512   |  10.1 |  0.00
Modify  | 20.037     | 20.569     | 21.109     |   8.7 |  1.71
Other   |            | 4.182      |            |       |  0.35

Nlocal:    85.3333 ave 89 max 82 min
Histogram: 1 1 1 0 1 0 0 0 0 2
Nghost:    473.5 ave 492 max 456 min
Histogram: 1 1 1 0 0 0 1 1 0 1
Neighs:    0 ave 0 max 0 min
Histogram: 6 0 0 0 0 0 0 0 0 0
FullNghs:  2109 ave 2221 max 2010 min
Histogram: 1 0 1 2 0 0 0 0 1 1

Total # of neighbors = 12654
Ave neighs/atom = 24.7148
Neighbor list builds = 108287
Dangerous builds = 0
System init for write_data ...
Total wall time: 0:40:03
