LAMMPS data file via write_data, version 4 Jan 2019, timestep = 10000

512 atoms
1 atom types

4.7855201406091119e-01 2.4356447985942516e+01 xlo xhi
4.7855201406091119e-01 2.4356447985942516e+01 ylo yhi
4.7855201406091119e-01 2.4356447985942516e+01 zlo zhi

Masses

1 18.0153

Atoms # atomic

470 1 1.0817947097078976e+01 6.1357679366189810e+00 4.4798772312237194e+00 23 -30 -117
70 1 4.4067819545064886e+00 9.7698433596275347e+00 7.5024385767151873e+00 87 2 12
193 1 6.1403976535454969e+00 9.1637711509157622e+00 1.0736064179681515e+01 -79 10 -9
37 1 1.1289656193836167e+01 3.5712590139883922e+00 4.7110630365777704e+00 49 30 -34
198 1 6.3760742180659014e+00 3.3864940577333860e+00 1.0140247066815865e+01 -33 43 6
432 1 1.5660692239206218e+00 1.1265302352746644e+01 4.6589315723045841e+00 36 -58 3
461 1 1.7988719768160124e+00 7.5025496219816894e+00 3.2617617253962599e+00 13 28 -11
320 1 9.9975335522409363e+00 4.9290034210687033e+00 8.5933001729144074e+00 24 84 42
39 1 7.3391487381437130e+00 8.7259140942240041e+00 3.9066104796732133e+00 10 30 45
426 1 6.6067737931948960e+00 8.5660533232324241e+00 8.0312621566875144e+00 90 -4 72
490 1 6.0530145185024180e+00 6.2449156818155451e+00 6.9862623518755322e+00 9 -96 -8
17 1 4.7275396656849038e+00 1.3865400936594754e+00 1.4701951121225725e+00 47 21 17
6 1 3.5499308709938564e+00 8.3596263364629024e+00 1.1127098850260071e+01 87 19 -33
267 1 1.8605658682447306e+00 2.8971573012584018e+00 3.6819469745411113e+00 -91 66 -58
3 1 9.9910568088189713e+00 9.1146932613341178e+00 4.3290278547042647e+00 6 58 25
152 1 1.0767477043569182e+01 2.6609845629045181e+00 7.1512066780552574e+00 -52 -153 -11
274 1 8.2070981305748916e+00 7.7127879625307223e+00 1.1144018151961511e+01 -42 28 -2
433 1 7.7180237361902755e+00 5.0761458097624157e+00 1.1702807102077697e+01 13 -47 -49
412 1 1.2941112492567761e+00 6.5448427336966812e+00 7.0303174217654902e+00 -23 21 -63
466 1 1.0846127474133766e+01 9.9604922129809097e+00 2.1291638484423965e+00 110 -29 -25
166 1 2.1006615532977015e+00 4.0899264849943293e+00 6.3403522632107601e+00 33 -11 -20
10 1 3.7991552393455583e+00 5.5380675934693446e+00 7.7556648098129877e+00 -88 59 -19
23 1 2.5831792267231135e+00 8.0760486662955948e+00 8.7083897180884087e+00 53 35 11
57 1 3.4903137542410101e+00 5.8979330199383826e+00 1.2373079618092781e+01 -30 -3 35
21 1 1.0141497325739628e+01 1.7666698144278086e+00 1.0984808336840768e+01 10 0 -123
137 1 5.2453555934139988e+00 1.1069840690708448e+00 6.7686831919858923e+00 -3 -24 56
204 1 4.0988313635927085e+00 6.5284662637185118e+00 2.7481053075722675e+00 16 -25 -176
486 1 9.1474136856137793e+00 1.8023105837639548e+00 4.8322471842513322e+00 52 21 -12
159 1 1.0724343027190619e+01 9.2965504797274594e+00 6.8246484924427815e+00 -52 54 109
69 1 1.2274313088339673e+01 5.0917875287149417e-01 1.2181318749789424e+01 -26 8 4
14 1 6.6249359877303995e+00 1.1721597512324387e+01 1.0482277540170193e+01 51 -26 37
22 1 8.0332238709042620e+00 1.0102337852213521e+01 6.3140236329093122e+00 3 -67 75
290 1 5.3174682137255251e+00 1.1877009213489492e+01 3.9625023291995576e+00 -8 -90 -84
150 1 1.0775821281541329e+01 1.0566264638572843e+01 1.1877038242284916e+01 79 -38 77
402 1 6.1429451775417743e+00 6.4116924687974475e+00 4.4600217257643173e+00 35 54 -32
99 1 7.5040645471452327e+00 4.3127960711877087e+00 7.8633492365055009e+00 -1 -8 40
251 1 1.1394291425513572e+01 6.7180895554127602e+00 6.7725329407858190e+00 -45 27 -53
319 1 1.2284654037587490e+01 9.1315777528107365e+00 1.0380136131505180e+01 -37 0 48
397 1 6.0847708770157256e+00 3.7776370634957464e+00 4.1852981630723667e+00 -47 64 -46
24 1 8.4583308819779237e+00 4.2073703444760486e+00 1.2086421631369157e+00 21 -60 68
227 1 3.8454166189821541e+00 3.7319589347689992e+00 2.4898047994588821e+00 138 103 -6
211 1 9.6062802459382368e+00 1.1785013797536946e+01 8.0654688253336051e+00 -29 15 -22
238 1 1.0551968081199897e+01 7.3664367424860417e+00 9.9046105780480271e+00 51 19 -15
248 1 1.0831721308722317e+01 6.1179158736914108e-01 8.7630891067321564e+00 -40 28 5
250 1 4.9133658849904487e+00 8.1368661180030397e+00 9.3328852850270472e-01 -9 8 172
405 1 3.8454458882137605e+00 1.0212558068832127e+01 5.1529386880329975e+00 -15 -4 55
94 1 1.4237314428589078e+00 1.0289912217724471e+01 1.1739419907529332e+01 -67 37 51
11 1 7.0328786309345404e+00 2.7310567114928692e+00 6.1920408177517290e+00 12 71 -45
371 1 2.4667417814595511e+00 2.1303232420748861e+00 9.8644790428981768e+00 -74 31 -59
28 1 1.0650744529501594e+01 4.3262486596690701e+00 1.1246435666264169e+01 8 30 24
18 1 8.6745886718407803e+00 6.0268852372548185e+00 3.1511223107043596e+00 55 53 43
468 1 6.0915487928015652e+00 1.0259181845094647e+01 2.2025727019163570e+00 69 6 -47
409 1 2.9386227650863717e+00 1.7619212393439803e+00 7.4174830621717591e+00 -60 82 69
427 1 4.1224923487897920e+00 4.1552902185349403e+00 1.0087902596761749e+01 119 -7 25
494 1 1.4334614802797172e+00 9.8393010889508883e+00 2.0748854511317498e+00 -8 60 -81
366 1 9.1551756334286105e-01 6.0250326313445601e-01 3.0340762387726019e+00 157 -5 -56
247 1 8.1751746488406436e+00 1.9817702287282968e+00 2.5864357766847528e+00 20 -16 19
453 1 5.9456410129839528e+00 9.1450695917889990e-01 1.0781211726047369e+01 59 -13 -1
252 1 5.1194681304773306e+00 1.2138106217049247e+01 8.5187471497112544e+00 -56 -80 5
185 1 1.0173144731443251e+01 8.2739447486351625e-01 1.3979377379436024e+00 0 11 -8
339 1 9.0621772560243734e+00 1.1859800531634624e+01 1.0493687974959846e+01 31 41 -2
199 1 1.0135692909865313e+01 7.7097916769232553e+00 1.0262368946755549e+00 19 69 -19
438 1 1.2187933150641463e+01 5.8824266088354831e+00 1.1033940821885662e+00 27 -18 -57
114 1 9.7841809522417478e+00 1.2270831588159433e+01 1.8264842148065288e+00 -13 6 -9
317 1 7.5518930625705911e+00 1.1524243890172581e+01 6.2452356536493636e-01 123 -34 -29
368 1 1.2267775028441608e+01 1.0720613212359396e+01 8.4426233561409330e+00 42 -37 39
346 1 6.0100780583673696e-01 5.9369136847196113e+00 1.1941082631375814e+01 43 31 -121
469 1 1.2390656050634581e+01 4.9830807991088627e-01 2.9876591414945439e+00 46 13 31
190 1 2.5631334645149502e+00 8.2908929096667805e+00 1.5758218360505261e+01 96 87 21
379 1 9.0118082414378922e+00 8.3470939322428261e+00 2.2508313237726973e+01 139 -7 63
343 1 8.5663886651762833e-01 8.5713637128934330e+00 2.0646123177494637e+01 -54 19 148
245 1 1.1347102295552441e+01 5.2694314581718151e+00 2.0690009245092838e+01 -19 15 97
340 1 9.7955378111613989e+00 3.7619555282218053e+00 1.7585264102376236e+01 55 40 16
404 1 6.9007941056181004e+00 4.7432197989348763e+00 2.3236001137408593e+01 -17 130 52
197 1 7.4251956271591464e+00 3.2910439952222212e+00 2.1288300652093902e+01 14 40 55
481 1 9.9124246237502494e+00 3.3528339710556687e+00 2.1580174994920576e+01 44 -18 -11
505 1 2.3303941412565816e+00 1.0456582318468239e+01 1.9860140073735224e+01 -3 31 -48
176 1 6.3961440986954816e+00 2.1381520460780088e+00 1.4553245121373083e+01 -94 -94 -32
40 1 1.4586285543768482e+00 3.3167946988111234e+00 2.1911670909813431e+01 15 36 59
42 1 3.6949303833043774e+00 1.2198491423635602e+01 1.6330502789492215e+01 1 64 -69
375 1 4.6158896979417969e+00 4.2377396501414530e+00 1.8303781092755010e+01 19 55 -116
372 1 7.4733748400253086e+00 6.9694824951503653e+00 1.9046874223946489e+01 18 7 21
431 1 5.5920629076519024e+00 1.3982782981919963e+00 2.2714742316493762e+01 -73 -33 -23
357 1 1.2196022089705099e+01 4.4333408896646764e+00 1.8487865556253055e+01 6 -11 -8
107 1 5.7614459029923140e+00 7.8381824795489941e+00 2.0607862114392773e+01 -37 53 -146
175 1 9.2298580811093824e+00 9.0389195394440112e+00 1.3441914381705843e+01 38 5 -19
26 1 5.8214051156191520e+00 1.0180855050546892e+01 2.0444458920738889e+01 -19 26 72
261 1 1.1058931149665115e+01 8.4387353470253901e-01 2.0900754448819896e+01 11 41 -115
327 1 3.1250677626444694e+00 1.0762038704188157e+00 2.1481511607397699e+01 88 1 1
7 1 4.5324994946486337e+00 3.6118254242507875e+00 2.3909787060218079e+01 44 9 55
309 1 4.9232333878660208e+00 4.9821242894075063e-01 1.5834430244755028e+01 55 57 -42
237 1 8.3776487854579642e+00 1.0697205195219725e+01 2.1797577927909941e+01 21 -33 -16
300 1 3.8521570097659841e+00 1.9442884607979161e+00 1.9273933269692854e+01 -70 65 26
501 1 1.0710757129330473e+01 9.4529838710605603e+00 1.9319131678346096e+01 34 -15 0
484 1 9.2274085735385558e+00 5.3491673465717584e+00 1.5420744775970917e+01 -43 -18 89
112 1 6.9361968337338791e+00 1.0405361399292484e+01 1.7994663245105038e+01 23 95 -43
221 1 9.7340972119871285e+00 7.2884729018166734e+00 2.0278873732949599e+01 -1 -1 34
216 1 1.5657505201555204e+00 6.2851597249903755e+00 1.6537158997380871e+01 -35 -1 161
59 1 1.9745245538247007e+00 1.6101439891492564e+00 1.7612460562085154e+01 42 -97 45
90 1 6.4952983246133087e+00 7.2647260290896813e+00 2.3110029360671348e+01 -50 -46 -76
394 1 3.8036796752135027e+00 1.1972285311703207e+01 2.1097504926509643e+01 -110 -1 -18
367 1 2.6047270371507909e+00 1.9417763046917484e+00 1.4970962233412308e+01 6 -1 60
315 1 9.4120150175230126e+00 1.2737349391423580e+00 1.7093428585924990e+01 -63 98 87
64 1 1.6044843950748358e+00 6.6795459043683483e+00 1.9404731110276664e+01 -39 64 16
127 1 7.7135650228666552e+00 1.0732070118099848e+01 1.4916328330856649e+01 56 74 77
342 1 9.2065675271372669e+00 1.5176770021450889e+00 1.4495350244511888e+01 27 -8 15
302 1 1.1784990813352708e+01 8.5656761091511040e+00 1.7084558066143664e+01 39 -68 -26
218 1 1.5389284798543541e+00 7.2841023526054327e+00 2.3175912289550162e+01 -56 -18 -24
81 1 6.9060269302571999e+00 4.5343452365954411e+00 1.3964346699751417e+01 46 97 -26
301 1 7.2139238720912111e+00 8.2046794995885257e+00 1.6698071533106493e+01 118 29 28
444 1 3.8272419992080868e+00 6.1677043356444265e+00 2.0111076319657982e+01 -5 -29 18
154 1 7.3015361764296314e+00 4.4503083859418782e+00 1.8946049895167803e+01 95 -31 1
277 1 5.0620988914069267e+00 7.8691129585025728e+00 1.5055479225740710e+01 45 2 105
396 1 1.0646897477174905e+01 3.8647217144805301e+00 1.3941052455220211e+01 -6 0 15
108 1 9.7520077667053631e+00 7.7855288584218041e+00 1.5886985398262716e+01 35 -40 33
242 1 4.6620889735453295e+00 5.5357375987251292e+00 1.4417975283157874e+01 11 5 -48
374 1 2.5203545790181443e+00 1.0232618434171272e+01 1.7477189839448606e+01 -5 33 0
286 1 2.8942741020471239e+00 5.2046695537661325e+00 2.2652762346729794e+01 47 -11 11
122 1 4.1277634834087831e+00 1.1936149635378360e+01 1.3664824020675283e+01 0 10 6
356 1 9.2963349056979467e+00 1.1576004604362499e+01 1.8491723390428803e+01 -53 0 -3
485 1 3.0060016587024743e+00 4.3146698741772269e+00 1.5876796580729094e+01 -11 -5 78
496 1 5.6481863474613982e+00 9.8469067977733147e+00 1.3489749050986422e+01 -2 -23 25
105 1 2.5883435999307904e+00 1.1840939078607491e+01 2.3392108641854662e+01 -1 92 19
373 1 2.8357216639349363e+00 9.2736861264615467e+00 2.4047618119880944e+01 51 39 -45
200 1 5.4776668038753218e-01 9.2899285445439190e+00 1.4068426056279812e+01 64 86 -18
115 1 8.6008687324849475e-01 1.2081792707592452e+01 2.1173793214160895e+01 76 -153 28
401 1 1.0554029006264367e+01 3.4689005098568972e+00 2.3974548300206799e+01 35 5 22
386 1 1.7860638649947556e+00 2.2382902083688492e+01 1.0637600732684209e+01 79 -49 -1
273 1 1.2202495692894411e+01 1.9612611183147941e+01 7.6174938872082727e+00 75 174 114
61 1 9.5397589658327551e+00 2.0213521584921267e+01 7.8858890505551509e+00 87 -59 97
141 1 8.4804047672054317e+00 1.7082865091539638e+01 1.1504351458355742e+01 96 68 -2
483 1 1.8083219420742622e+00 2.0300123511518720e+01 1.2115431374002549e+01 38 67 12
5 1 1.1293999749859395e+01 1.7329983332835582e+01 4.7394334460008860e+00 43 36 5
378 1 9.2277090635303356e+00 1.6206943581283788e+01 3.3849082456051627e+00 9 -14 -56
266 1 1.1122944494872719e+01 1.9920345626191498e+01 3.7720326600627718e+00 37 -60 16
113 1 7.7216618623823345e+00 1.9495455506490970e+01 5.8494897012770455e+00 -44 30 85
171 1 6.5211077543044969e+00 2.3643649065660419e+01 8.4629600326189802e+00 -34 43 17
279 1 5.2611651907076959e+00 1.7155247146228369e+01 3.1196971713901669e+00 -35 160 52
499 1 4.9268930072427883e+00 2.1536807072835771e+01 8.6939923943312962e+00 46 -26 -78
495 1 5.1037223853534543e+00 1.4173701010731104e+01 2.8080806846053701e+00 -37 17 -60
479 1 6.3703747209046195e+00 1.3995205270711573e+01 7.1681780642010811e+00 -32 -8 -45
27 1 9.9829234202386079e+00 1.6622223529470972e+01 1.0163990488255434e+00 17 -30 56
184 1 9.7025610228962336e+00 2.3296614584201649e+01 5.4153806605460648e+00 1 0 35
294 1 2.9838188213640664e+00 2.3491624428082218e+01 1.6551054235978804e+00 43 30 -79
254 1 1.7893652055064662e+00 1.9325967058634298e+01 8.1509464971242505e+00 45 96 37
311 1 1.3263714576063230e+00 1.5979761868142942e+01 4.7620245706340221e+00 12 -49 18
179 1 8.2143065851270229e+00 2.1504750941162754e+01 1.2362190232794436e+01 -68 -72 -44
467 1 9.7807344166101124e+00 1.3743855595354143e+01 4.0795603136526504e+00 -59 87 44
65 1 9.8604394869115595e+00 1.4630609925874010e+01 1.0940936924189105e+01 -33 72 -10
487 1 8.4565911430145491e+00 1.9689030955457518e+01 1.0245327303169358e+01 36 46 -9
400 1 6.5204380876961592e+00 2.3885540832771248e+01 2.7064772976760270e+00 57 24 -23
196 1 1.0371374442568589e+01 1.5535820440202325e+01 8.3358397364809171e+00 12 18 15
289 1 2.6623271028281903e+00 1.8499060381727197e+01 1.0442229196462293e+01 -25 -7 -57
445 1 9.2148145245545514e+00 2.2799500291080200e+01 7.8330154435839763e+00 119 71 -1
349 1 6.1921073516827816e+00 2.0641673632653031e+01 1.0790142865862871e+01 -6 25 56
507 1 7.3500119357708771e+00 1.7466572244276904e+01 9.1007540309964270e+00 -56 22 -17
46 1 1.1677242674142008e+01 1.9954379465455389e+01 1.3944770519285221e+00 40 -7 65
134 1 1.2417492200098041e+01 1.7515065823655064e+01 1.1282447311197110e+00 -79 -16 15
2 1 7.2917435871455449e+00 1.7165410875218633e+01 4.8795357051496904e+00 -45 1 -12
255 1 1.0725635075688407e+01 2.0446822782531406e+01 1.2103928521699434e+01 -130 7 77
140 1 4.1732033130377744e+00 1.5670535594349102e+01 7.6716270617008373e+00 -63 25 -8
229 1 3.0550864402092315e+00 1.5877926506902764e+01 2.7805545571528301e+00 47 24 24
207 1 2.5656338825454141e+00 1.4519822697133169e+01 1.0871310866259677e+01 36 -40 -5
53 1 1.2006597132827398e+01 1.7032515466803240e+01 7.2645991010691731e+00 62 100 147
325 1 2.0365641446425933e+00 1.9656813606911179e+01 1.4207760971802141e+00 -82 36 35
269 1 7.5977215674039478e+00 1.2681534547908431e+01 5.1221003727371786e+00 17 -32 3
189 1 6.7536497693392294e-01 1.3471917388127423e+01 3.9546020341083157e+00 123 -46 -39
416 1 2.1897767163260542e+00 2.0090188264910672e+01 4.0393906970547651e+00 -3 -35 20
201 1 8.0060297329689725e+00 1.6070433407333159e+01 7.1709784623446504e+00 -95 -53 33
442 1 4.4797569630204039e+00 1.5682421307242267e+01 1.2385395339011533e+01 24 -13 -105
509 1 2.8695362392766612e+00 1.3353922283078113e+01 8.4077437401000896e+00 116 46 -81
172 1 2.4675427932815781e+00 1.7478341759619070e+01 6.5929397256011866e+00 -26 -109 40
32 1 1.7701189878801085e+00 2.3496851510980122e+01 6.6198594178394679e+00 -54 111 -48
243 1 8.8744174577144648e+00 2.1020043300513279e+01 4.2191744857723332e+00 17 -36 -26
482 1 3.2589508499781061e+00 2.4238745626907900e+01 1.1380435318539943e+01 7 72 38
210 1 1.1612274971681074e+01 1.3276626603859198e+01 7.6406132200141350e+00 -5 4 49
84 1 2.5273806189142869e+00 2.1646614129356117e+01 8.4102935818091797e+00 37 59 33
87 1 5.0954632131756474e+00 2.3050906193140541e+01 4.8308896081369683e+00 -5 38 82
424 1 5.5414275932202086e+00 2.0499770653433927e+01 6.3449402001789688e+00 35 0 -22
280 1 4.8980212906352296e+00 1.7171640747940089e+01 9.6339550127803264e+00 13 -44 149
395 1 4.0359190586923397e+00 1.8717923525524718e+01 5.0673412300140708e+00 -34 39 -56
50 1 2.5317640613905823e+00 2.2765255229179878e+01 4.2546946302226427e+00 16 29 -35
415 1 5.9792955334090223e+00 1.9300419055188286e+01 1.5891383242752333e+00 -58 -48 20
450 1 1.2947480783969132e+00 1.7365810760322596e+01 1.1939400046161404e+00 114 -83 27
143 1 7.6097182814807756e+00 2.1270293368044037e+01 2.1228693169441382e+00 44 7 -3
350 1 1.1846598779753482e+01 1.2775228718248345e+01 5.1034316282273693e+00 17 -5 36
52 1 3.9637250498530365e+00 2.1109236315559684e+01 9.7261912875348389e-01 104 -79 138
259 1 8.5272238530208089e-01 1.6592030097634307e+01 1.0501675793762560e+01 1 52 29
498 1 1.2164043191984712e+01 2.3343968977149721e+01 5.3356277146599975e+00 38 18 4
452 1 8.3253364161403276e+00 2.4041586977323369e+01 1.1833673821538877e+01 12 -7 83
139 1 4.8661233867303686e+00 1.8797729932433171e+01 1.2030852629428448e+01 -11 -5 -24
25 1 5.4574088650810069e+00 1.9283626860249434e+01 2.1261085000307617e+01 54 -73 -47
145 1 1.6125034148675170e+00 1.2681672879933586e+01 1.2453625086421752e+01 35 -8 -46
502 1 1.1811393116655109e+01 1.2853399738421333e+01 1.2689338476777717e+01 -47 -33 -50
13 1 1.0672139781968975e+01 1.5564579098600529e+01 1.7997866368295206e+01 136 -10 73
188 1 7.5881395607111628e+00 2.0975693744011338e+01 1.4792944541974546e+01 9 -2 66
328 1 1.1928324140907362e+01 2.2256285350071387e+01 1.3484853070747748e+01 71 81 0
268 1 4.8903894251132209e+00 2.1476331105730878e+01 2.2490501656288934e+01 -114 1 -10
222 1 9.6755545497866837e+00 2.3509602496228140e+01 1.9224311821299878e+01 19 56 46
240 1 8.5734134167381253e+00 1.3174535367406774e+01 1.4936582035986056e+01 -222 141 57
270 1 1.1745315294051769e+01 2.1185636224363030e+01 1.6004590302468777e+01 21 127 112
181 1 8.8242168732310535e+00 2.2731579175282171e+01 2.3771046345058551e+01 80 67 -47
458 1 8.4630791635270981e+00 1.5125719020054486e+01 1.9456692426461757e+01 -33 45 4
418 1 1.1344146672638096e+00 2.3207093665748438e+01 2.3672420373712320e+01 -72 -66 -16
260 1 6.1130835376026527e+00 1.6654996681240974e+01 1.6120173540175607e+01 -35 1 62
465 1 1.5315680917227217e+00 1.9594474488201847e+01 1.9960780117270730e+01 38 41 42
215 1 3.1339286892475227e+00 2.3444293156800320e+01 1.4071787969336919e+01 10 -139 -39
330 1 7.3076447755207479e+00 1.4734919596540550e+01 1.6930727927816584e+01 -15 24 43
362 1 4.4919060854531194e+00 1.4066155484049020e+01 1.9659067837673049e+01 -56 -24 -65
158 1 1.1208512890431615e+01 1.4094439060821264e+01 2.1810999502337815e+01 -54 62 -87
480 1 6.5694557077870694e+00 1.7027316970574233e+01 1.3531003115505049e+01 8 -52 74
391 1 6.1555154639088085e+00 1.7819740057229211e+01 2.3391337112387667e+01 -88 -23 -4
178 1 3.3086213731440690e+00 1.9190361125618175e+01 1.6496360415579360e+01 73 30 -60
72 1 7.0067647411615113e+00 1.4242126571411722e+01 2.1701680754707489e+01 25 60 42
455 1 2.7951007549247806e+00 2.1941416814630628e+01 1.9032669421674910e+01 54 103 24
68 1 9.5628823986684530e+00 1.7887669135023707e+01 1.7324877050965874e+01 2 -23 10
399 1 3.7614081888476463e+00 1.6609519074617651e+01 1.6492394219940792e+01 14 64 -14
244 1 2.5551586646356439e+00 1.6098303021975948e+01 1.4326464889100224e+01 -36 69 10
74 1 1.1243149362407898e+01 2.1329458980023311e+01 1.8551304122171061e+01 2 59 -14
471 1 9.3669781484400811e+00 1.7212165996586123e+01 2.0920096615622143e+01 -83 -16 17
8 1 9.1468598579295701e+00 1.9388282430717858e+01 1.9328740595345081e+01 -15 27 -36
148 1 1.0646530146093511e+01 1.2918975410479248e+01 1.7038105357440109e+01 -54 48 67
83 1 5.1973184106116248e+00 2.2032689110682036e+01 1.5057897543240577e+01 45 7 -1
463 1 1.0973370522050825e+00 1.8956362344570962e+01 1.7540303479083477e+01 -35 26 -38
511 1 8.2383965491821858e+00 1.4938413968195540e+01 1.3140408900722578e+01 41 2 94
110 1 9.4616052272074622e+00 2.2554400599663566e+01 1.5087578597854305e+01 25 -37 -26
419 1 5.5638389891618472e+00 1.2945944458981559e+01 1.7753418901805624e+01 40 14 9
388 1 6.9269570772972582e+00 2.0192216842171938e+01 1.9244045318845778e+01 57 -10 28
91 1 1.1640541090670988e+01 1.8441920576690464e+01 1.5737515243497418e+01 -32 5 17
82 1 9.3699529535308681e+00 2.0265643815466184e+01 2.4308883263344647e+01 -3 -4 7
441 1 6.8398894622468420e+00 2.2997880019080142e+01 2.2222186841522408e+01 -4 -67 -19
406 1 9.2249964044279782e+00 1.2913937565746672e+01 2.0761629361809703e+01 40 136 0
232 1 2.8533785152185565e+00 2.2505014391500595e+01 2.1493271986399712e+01 86 33 30
75 1 4.7676444269340070e+00 2.1045852148328230e+01 1.7596072551731609e+01 15 41 6
464 1 1.1147376979508843e+00 2.2214262831779330e+01 1.5184324724612866e+01 21 23 -24
446 1 8.1009837726257423e+00 1.8416022254761465e+01 1.5156012882434567e+01 24 34 -15
208 1 2.2791519458521137e+00 1.6018284459794550e+01 2.3046430123419661e+01 22 83 -10
231 1 3.0766158788573192e+00 1.6087798333734554e+01 1.8982197421043118e+01 -40 9 35
369 1 7.2726171935077657e+00 2.2918193429151586e+01 1.9722727221162700e+01 -2 51 1
16 1 3.2293583770452869e+00 2.0575449125781709e+01 1.4171890962874542e+01 141 95 5
147 1 1.0090989923724340e+01 1.8068217805804160e+01 1.3462474263725943e+01 -31 29 95
332 1 8.6720023035378162e+00 1.8019486271314534e+01 2.3237502293854646e+01 10 -25 -105
303 1 5.0526139884927597e+00 2.3584818055408157e+01 1.8400123005314875e+01 29 -7 196
459 1 1.1428966214850997e+01 2.3439346751243797e+01 2.3035129383969874e+01 61 -10 50
174 1 6.0796722208488507e-01 1.5242862101926965e+01 1.9270404037239651e+01 16 97 -25
173 1 5.9721856664885076e+00 1.3601502719058775e+01 2.4049539358111105e+01 39 56 -14
117 1 3.1705767779961573e+00 1.7882027116365848e+01 2.1206263098669346e+01 52 45 94
449 1 1.1265081927381447e+01 1.5506286660374855e+01 1.3302210726506500e+01 -50 69 31
359 1 1.2114793031288396e+00 2.3137187725955712e+01 1.7614091503906636e+01 -34 44 3
385 1 2.1866503676871103e+00 1.3712216860417358e+01 1.4698012409331985e+01 43 31 44
393 1 1.2116269766470474e+01 1.6167006117049496e+01 2.0178369798320439e+01 88 41 -84
103 1 5.8211512976150912e+00 1.3448264951500041e+01 1.2753036309064266e+01 -19 37 -51
86 1 1.1096372761769857e+01 1.4066128532403374e+01 2.4337149758342111e+01 -41 -66 78
287 1 3.4410554572591789e+00 1.4094933370764657e+01 2.4355858332829314e+01 -23 -10 -7
33 1 2.3382865873068660e+01 1.0373129575488523e+01 5.7136522872916906e+00 -105 -37 -19
146 1 2.1238766646083043e+01 9.8970839991029607e+00 1.1033643004906093e+01 -7 0 13
182 1 1.9290939911977219e+01 3.9603008747601134e+00 6.7632325602979404e-01 123 52 50
36 1 2.3356854708021118e+01 3.5274104927898220e+00 1.2266948506081709e+01 111 70 121
308 1 1.3927169387171288e+01 2.6404778847362675e+00 1.1816134995907515e+01 50 113 68
93 1 1.7575074549272287e+01 7.7525581252676261e+00 9.7376048697097488e+00 -37 -11 12
224 1 1.6863918027607816e+01 5.4800122883040423e+00 1.0852983619016474e+01 63 -89 5
297 1 1.8206085727186156e+01 1.2004938859893830e+01 1.9906663410076262e+00 20 27 -6
313 1 1.9713917174489879e+01 5.8410664043987488e+00 1.0812966204314822e+01 -50 29 35
403 1 1.9381746912906692e+01 9.5881664583202788e+00 6.3130105406241519e+00 -67 42 11
4 1 1.5816350065757987e+01 1.1117011303449768e+01 1.1773031902466885e+01 24 -81 7
230 1 1.8190710202442965e+01 3.8381774872804115e+00 4.8908672048601050e+00 0 -24 -139
167 1 2.0090042460380765e+01 8.7875029703456065e-01 3.6521046437488742e+00 31 -15 1
142 1 1.6207665162371441e+01 1.5591417852658156e+00 1.0143231208438239e+01 19 21 49
492 1 2.2004427411838954e+01 6.9516224480268445e+00 4.4485421054077943e+00 -6 -28 49
475 1 2.3547253332005177e+01 9.8527537429302736e+00 9.9938421238674966e+00 13 -13 -17
358 1 2.2080865879627950e+01 1.8501005051479555e+00 7.9725654342811101e+00 -26 94 39
316 1 2.2633001734386966e+01 1.0007562518398309e+01 2.0582497920175413e+00 40 121 73
312 1 1.3128078065976318e+01 6.7420010371354069e+00 3.3261899802531389e+00 -5 23 22
493 1 1.2593268238219073e+01 1.0070291248438544e+01 4.8961084872471350e+00 -55 99 45
209 1 1.9985033627624972e+01 9.4996750635628568e-01 1.2126544907574786e+01 0 12 -39
476 1 1.5265400971126093e+01 6.6388458919097735e+00 4.8042695852593207e+00 -35 -22 -49
323 1 1.4423599127831846e+01 9.8754328251310302e+00 7.1148797205020449e+00 19 -106 14
213 1 2.1986913224586083e+01 4.5676162947099579e+00 4.1158326223265451e+00 -57 -10 12
460 1 1.7518379325699591e+01 2.0453967760345502e+00 1.0074750638524135e+00 -110 128 26
354 1 1.9983628047631903e+01 7.2399420867743824e+00 5.9650677412039714e+00 16 58 20
135 1 1.3573242591275797e+01 3.2868301699267297e+00 5.9792862887153015e+00 3 52 -70
314 1 2.3807027693580288e+01 2.1198575615261506e+00 1.0143012399043194e+01 -15 24 -9
54 1 1.4312453835464114e+01 4.5838342382157951e+00 8.1109349666984372e+00 -6 14 41
377 1 2.0732905602497823e+01 7.9464467195310551e+00 2.3484457972512836e+00 19 8 -114
109 1 2.2430459272783885e+01 4.8958088165063822e+00 8.0409440054242260e+00 -87 -22 -47
333 1 1.6518518091684278e+01 3.6520272818552018e+00 8.6818193310427585e+00 18 33 32
214 1 1.4678908195166738e+01 8.9868354306739562e+00 2.9541526484464589e+00 11 93 1
104 1 2.2955072166767415e+01 1.1399487330931475e+01 7.9587297804994037e+00 76 32 -8
34 1 2.1383652729437244e+01 1.0087247099193664e+01 4.3997365336612404e+00 -117 -16 133
310 1 1.9607226557471130e+01 1.1799536214823998e+01 1.0203864624143952e+01 -13 -17 15
292 1 2.0831852529097070e+01 3.4286775600180501e+00 1.2172244743809500e+01 -15 19 64
423 1 1.6543931002919983e+01 2.3840603734965038e+00 3.5202569015688225e+00 -17 -2 60
220 1 1.5422098445920337e+01 1.0950428813415567e+01 5.0387634403001895e+00 48 -1 3
504 1 2.3427571237439487e+01 3.3952938744213128e+00 6.2254520311262782e+00 -40 -16 48
258 1 1.6958689465162436e+01 9.5493581963832277e+00 1.6304058747783960e+00 117 -54 71
85 1 1.4079833497007009e+01 7.0595483047315968e+00 7.1971733391068167e+00 23 47 -96
263 1 1.4693475883883128e+01 4.2446283663085982e+00 3.7042655479427653e+00 23 135 2
474 1 1.7807051780978178e+01 6.5851294253178949e+00 4.5366682445531659e+00 -8 -46 -32
437 1 1.7514389925064343e+01 1.0103440588025638e+01 1.0111781230249401e+01 5 15 -119
219 1 2.0069323839313547e+01 5.4307845861852195e+00 8.1739284850006193e+00 -28 -14 -97
111 1 2.0474301686702674e+01 1.1902047369214042e+01 7.8222718254720744e+00 3 44 91
125 1 1.9537660888028810e+01 1.5479960778722894e+00 7.8252802842775999e+00 -47 -39 -13
223 1 1.8210490172839812e+01 7.5678335710957683e+00 2.2449774617996914e+00 113 35 5
180 1 1.4101732037163899e+01 8.8514075739026623e+00 1.1995034139155228e+01 -2 285 -30
271 1 1.7005227616610213e+01 1.0495528974582534e+01 7.2605906490545857e+00 43 30 -52
41 1 2.0138140961828249e+01 3.5060015635746917e+00 3.2309399717835445e+00 65 -1 41
95 1 1.8640662247502171e+01 3.6700035868717769e+00 7.4276810862101774e+00 54 132 -4
305 1 1.4709423072634085e+01 6.2786539913465704e+00 1.1746720935380823e+01 9 92 28
389 1 1.5105297587155993e+01 4.6281351120993053e+00 9.1897109514288178e-01 4 69 -18
130 1 1.5246833910007163e+01 1.1222193784057080e+01 9.2047235212593925e+00 -14 -38 7
235 1 1.9441219406447892e+01 1.1811291267186716e+01 4.2778767482599322e+00 19 -62 140
341 1 1.7424754598495241e+01 5.6472709041856026e+00 6.7136870409070570e-01 35 -27 65
503 1 2.3760181169964483e+01 3.8863268322604432e+00 2.3573179253390051e+00 -7 2 19
31 1 1.3138622015699726e+01 4.5139005056248669e+00 1.0399987187959869e+01 -54 -19 127
457 1 2.3807907372333425e+01 7.3573324927302988e+00 9.3422198393958915e+00 -12 -32 72
246 1 1.4061597225495150e+01 7.1620613058020011e-01 6.4092807234881288e+00 71 57 102
101 1 2.1165113733083224e+01 7.8521326028929099e+00 1.2277625414721040e+01 -29 -18 59
165 1 1.3219632650825714e+01 1.0236159614037570e+01 9.5806082775219992e-01 87 -16 99
440 1 2.4234887068661209e+01 7.7840832162218883e+00 5.1949480069261202e+00 -29 -38 122
334 1 1.8728805867599100e+01 6.3694937643708016e-01 9.9328842344591806e+00 48 76 21
428 1 2.4075057759773088e+01 1.2022269279365021e+01 8.1639687684727269e-01 55 -8 -6
272 1 2.3960261167288174e+01 6.6398169562015505e+00 1.2353691363962591e+00 -22 4 107
29 1 1.2481039701388326e+01 3.3224260306291873e+00 2.3522013337371375e+00 56 -47 -21
408 1 1.7163278531831118e+01 8.4309065009311261e+00 1.5245586641488918e+01 -140 18 55
422 1 1.9406877729913560e+01 3.0052199840287885e+00 2.1726828347528013e+01 -2 69 65
162 1 2.3143115505926993e+01 7.0645665440359657e+00 1.3756895594154130e+01 -44 7 2
19 1 2.0875279407144966e+01 1.2069699151282800e+01 1.2829575750095685e+01 16 49 73
170 1 2.2804330566674125e+01 1.1104875518476394e+01 1.4524063386090670e+01 16 44 -19
236 1 1.8125554695914737e+01 8.3351111667400737e+00 2.1896061194339147e+01 39 74 63
97 1 1.8754745840562940e+01 9.4904679468518189e+00 1.9619640765192869e+01 20 61 -17
347 1 2.0846049592230578e+01 9.6314492158764136e+00 1.8611925426221340e+01 -119 -2 -4
447 1 1.8177429206880596e+01 4.1731915276686884e+00 1.3040168797290399e+01 -7 -109 25
78 1 2.1135509200653033e+01 9.9994933786372027e+00 1.6008267694177960e+01 -13 -57 -22
100 1 2.1003360192587088e+01 7.6661491496731164e+00 1.6913973786360145e+01 46 -122 -21
307 1 1.9738662454507349e+01 8.1775819580593065e+00 1.4236644605079221e+01 -52 101 -9
338 1 2.3537579971949519e+01 2.7883730262933941e+00 1.8362189216557752e+01 -1 -1 41
118 1 1.6440419313314742e+01 9.9005132412927157e+00 2.2923536875340055e+01 -29 131 -77
186 1 1.7329326192869829e+01 1.2271004237750933e+01 2.2161183838497465e+01 -30 163 27
436 1 2.1709216832757974e+01 6.8035319092755557e+00 2.4058727345210144e+01 38 72 22
51 1 1.3580508791881083e+01 1.4048845490248789e+00 2.0450100066740859e+01 36 -6 -44
225 1 1.4781248489085296e+01 2.8005953480409165e+00 2.2293292492331467e+01 25 82 19
239 1 1.9535592822935357e+01 1.2576738620735224e+00 1.5998301389681354e+01 53 -20 9
106 1 1.4579889721223275e+01 6.8295653437312165e+00 2.1239560642348167e+01 15 -15 5
192 1 2.2619084437930368e+01 3.5089885191822088e+00 1.6234125981463031e+01 -85 69 -52
226 1 2.1187358752932212e+01 4.6211045718825954e+00 2.0447983105833281e+01 -5 15 -2
506 1 1.5163037979448310e+01 6.8951808109308645e+00 1.8702714506471146e+01 -16 -11 -5
387 1 1.6754521773622180e+01 3.5141989821138302e+00 1.8766896742490168e+01 80 -27 116
45 1 1.9741123063100602e+01 1.1719353221940205e+00 2.0068882990662630e+01 -3 86 -73
293 1 1.7487175913568450e+01 5.7564750648366170e+00 1.7789625045466046e+01 6 125 56
383 1 1.9866259983960042e+01 5.2087143253524735e+00 1.8122417561109245e+01 -40 93 -28