LAMMPS data file via write_data, version 4 Jan 2019, timestep = 1000000

512 atoms
1 atom types

-1.3310912285660947e-02 2.4848310912288802e+01 xlo xhi
-1.3310912285660947e-02 2.4848310912288802e+01 ylo yhi
-1.3310912285660947e-02 2.4848310912288802e+01 zlo zhi

Masses

1 18.0153

Atoms # atomic

470 1 8.6319283557996513e+00 9.0769255545278238e+00 3.2216517360973711e+00 23 -30 -117
70 1 3.2030907347812736e+00 1.0720755885920779e+01 7.0915118293692050e+00 87 2 12
193 1 6.5711572703438987e+00 9.6683129072516394e+00 9.9937487531606219e+00 -79 10 -9
6 1 4.8609028427432444e+00 8.6901639509251254e+00 1.2124246620747778e+01 87 19 -33
198 1 5.0628954722900783e+00 4.8198197958348619e+00 1.0665248698607678e+01 -33 43 6
162 1 6.7164474917020534e-01 8.4716453412655905e+00 1.1494803145754201e+01 -43 7 2
432 1 1.2029833086552031e+00 1.0189724862895378e+01 5.5224232444372774e+00 36 -58 3
445 1 1.2399110128725630e+01 1.1136318253117103e+00 8.4681587973799193e+00 119 72 -1
39 1 5.2665655832265026e+00 9.2783730423936035e+00 2.1430166376441786e+00 10 30 45
426 1 8.2874595982610799e+00 6.9038109514511037e+00 5.2774284410784906e+00 90 -4 72
490 1 7.1673972921845515e+00 6.0842521479499982e+00 7.8422439531472312e+00 9 -96 -8
31 1 1.0943488492395359e+01 6.1957819944382528e+00 9.8308517430354598e+00 -54 -19 127
475 1 1.3154393399037920e+00 1.0373967893923956e+01 9.1117466672437999e+00 14 -13 -17
24 1 4.2711921056811804e+00 7.5576130211738723e-01 1.4046593120331792e+00 21 -60 68
90 1 6.4289233862673276e+00 4.0245749571602154e+00 7.5287325698022323e-01 -50 -46 -75
165 1 1.1017962688640566e+01 8.7715745567638308e+00 1.2427414226629547e+00 87 -16 99
274 1 7.8760377612197621e+00 8.4324714967803658e+00 1.2162894578933130e+01 -42 28 -2
454 1 1.2175432056694144e+00 1.1102530539329994e+01 1.6345529712316136e+00 -51 51 11
412 1 1.6047618137013111e+00 7.8435620400689867e+00 4.6287344896485001e+00 -23 21 -63
452 1 4.3571080698306819e+00 3.5744990587297443e-01 1.1637885058669134e+01 12 -6 83
409 1 1.6313995048400360e+00 2.9546688294751093e+00 8.2870276699824306e+00 -60 82 69
10 1 4.0759262516292543e+00 7.9126694211279522e+00 6.6398235829667378e+00 -88 59 -19
23 1 4.8531801904830241e+00 7.5398395609361843e+00 9.2040725773162126e+00 53 35 11
152 1 1.2008015685083945e+01 5.3679090210582050e+00 7.3554932658974099e+00 -52 -153 -11
466 1 1.1283081055130117e+01 1.0423378221800451e+01 3.8368698070000384e+00 110 -29 -25
366 1 1.5886039123059997e-01 2.2004105733213208e+00 2.8415224744496639e+00 157 -5 -56
204 1 3.1302663529521264e+00 5.4265218362681793e+00 5.6756508004730382e+00 16 -25 -176
7 1 2.9410139942268345e+00 3.0499551993411722e+00 2.0972320803945683e+00 44 9 56
159 1 8.8091627987038255e+00 7.9460144338450984e+00 9.5526911802037642e+00 -52 54 109
269 1 9.0778302457630495e+00 1.1403018095864320e+01 5.3617711897436084e+00 17 -32 3
482 1 4.4366078938333011e+00 2.3329604950513820e+00 9.2365109843785920e+00 7 73 38
22 1 5.8255337741385205e+00 8.5824748895253311e+00 4.6904015830148191e+00 3 -67 75
368 1 1.0830820492323982e+01 1.2196918398945353e+01 8.2174599478504238e+00 42 -37 39
290 1 4.6371199119423485e+00 1.2134622498207843e+01 2.1772698577493004e+00 -8 -90 -84
402 1 7.0715336178412116e+00 4.5591551720180901e+00 4.1936587196870718e+00 35 54 -32
99 1 8.0070637867674854e+00 3.3981522666794461e+00 8.4455062999173052e+00 -1 -8 40
401 1 1.0575648622903932e+01 2.4135573239303212e+00 4.9635793007948381e-01 35 5 23
494 1 3.3031803347132627e+00 7.1639891402802522e+00 2.7267410654348314e+00 -8 60 -81
61 1 7.4593213455129295e+00 5.1568334065979449e-01 6.6314585684774237e+00 87 -58 97
135 1 1.0463330585391713e+01 4.8817022290934755e+00 3.2214753499284159e+00 3 52 -70
227 1 5.2212067616123674e+00 4.1402747634697938e+00 7.2868107239566760e+00 138 103 -6
211 1 1.0005188060582382e+01 9.5909491625366492e+00 7.5387748744865748e+00 -29 15 -22
238 1 9.7535245218866091e+00 4.4811975306767611e+00 6.0408128755508379e+00 51 19 -15
267 1 8.3324376095215280e-01 3.7628508106958192e+00 5.4926647336902139e+00 -91 66 -58
171 1 5.7127541661457943e+00 2.2400834102840488e+00 5.2450426964946342e+00 -34 44 17
21 1 9.8238953502675717e+00 3.6804013468057111e+00 1.0622436874248185e+01 10 0 -123
189 1 7.5150116933021369e+00 8.8292045142015656e+00 5.4886511817091832e-01 123 -46 -39
453 1 7.1341290757320337e+00 8.1286180739845038e-01 9.4175825699010183e+00 59 -13 -1
176 1 7.2399667295812273e+00 6.3708226252161559e-01 1.2325018535245151e+01 -94 -94 -32
379 1 8.1192944380400540e+00 6.2692885451562885e+00 2.3062280977237018e-01 139 -7 64
18 1 8.5604314643424644e+00 3.0214674417857044e+00 2.3252159442902904e+00 55 53 43
29 1 1.2246654617014931e+01 2.5355326421676141e+00 3.5537255300712860e+00 56 -47 -21
57 1 2.7632918717844048e+00 6.4907963189768063e+00 1.0590972712276006e+01 -30 -3 35
427 1 6.7317507283395372e-01 4.5767192401445467e+00 1.0200216816683902e+01 119 -7 25
250 1 4.6668128805550353e+00 4.7184948642927500e+00 3.0831530608907860e+00 -9 8 172
498 1 9.9693953011619900e+00 1.6122723949117157e+00 6.9057216009211002e+00 38 19 4
3 1 1.0783005256157624e+01 5.0833475606678720e+00 5.1659349801718768e-01 6 58 25
251 1 1.1007266020707160e+01 7.4568324885124007e+00 4.0885424694909300e+00 -45 27 -53
69 1 1.1296711409380332e+01 1.9897417905624506e+00 1.1930277140781790e+01 -26 8 4
37 1 7.8053085284235806e+00 5.3078711359609043e-01 3.5687134170133890e+00 49 30 -34
486 1 1.0534225701483910e+01 3.6439740214210736e-01 4.3092341224260053e+00 52 21 -12
94 1 2.4699493264939743e+00 1.0710742417737297e+01 1.1860773607676682e+01 -67 37 51
54 1 1.2237512469436052e+01 7.8602948271580004e+00 6.5462380059474059e+00 -6 14 41
433 1 7.3517986642918540e+00 3.6472587108538086e+00 1.2193323619080338e+01 13 -47 -49
14 1 6.3477440815865673e+00 1.2401958678842314e+01 9.0398552303575830e+00 51 -26 37
50 1 1.7590232617743289e+00 1.3999502828363930e-01 3.4098007438551914e+00 16 30 -35
378 1 1.0705283969319984e+01 1.2404883198552106e+01 2.0239403750544178e+00 9 -14 -56
373 1 3.2278069791564725e+00 9.7430255076629724e+00 1.4317301846192976e-01 51 39 -44
461 1 2.4413057281375927e+00 6.8897559206353076e+00 1.5631844684470764e-02 13 28 -11
190 1 2.4435970279010020e+00 8.8920259769609569e+00 1.5998764986126602e+01 96 87 21
148 1 7.9726757019612187e+00 1.2204933018262563e+01 1.3642483024943523e+01 -54 48 67
276 1 8.8766939890951324e-01 4.3447467976008607e+00 1.6320099716388594e+01 31 166 -30
441 1 4.9747663245063309e+00 5.3885259210321135e-01 2.3657632009310081e+01 -4 -66 -19
340 1 9.1687512297768308e+00 4.0481403410214192e+00 1.8169515373693567e+01 55 40 16
404 1 5.6598836465603064e+00 3.6345095200426170e+00 2.2902902704227259e+01 -17 130 52
197 1 7.0928441499400980e+00 1.2527616239313180e+00 2.2076497408592914e+01 14 40 55
315 1 9.5385201338892021e+00 1.2031997150918267e-01 1.7008508119534149e+01 -63 98 87
505 1 1.7487930080879397e+00 1.0793578267099027e+01 2.0444764219702634e+01 -3 31 -48
369 1 5.9980735667305183e+00 1.4291902839934736e+00 1.9273939320915137e+01 -2 52 1
309 1 4.5686664912507524e+00 9.5730674450273634e-01 1.5269647600007854e+01 55 57 -42
13 1 1.1560666325053287e+01 1.0966165204049123e+01 2.1420617792692099e+01 136 -10 73
375 1 4.0094712303164517e+00 2.9464749462636948e+00 2.0466622659987166e+01 19 55 -116
372 1 7.5480826066434608e+00 5.8991907534858576e+00 2.2321822313916389e+01 18 7 21
47 1 1.1295971623224466e+01 2.6429751389393572e+00 1.6888800449506132e+01 22 61 -104
346 1 2.3311680081060118e+00 3.1864445660161920e+00 1.3289257102851460e+01 43 31 -121
107 1 5.1628028516925850e+00 7.6204132993059339e+00 2.1229792252856893e+01 -37 53 -146
343 1 5.3238858077350337e-01 8.1004140480104336e+00 2.0126886792822194e+01 -54 19 148
26 1 6.3371879871340004e+00 9.8975840674621693e+00 2.1822489974831925e+01 -19 26 72
42 1 5.4131661488140503e+00 1.1853970251874427e+01 1.8728142709249738e+01 1 64 -69
212 1 2.9421489641399773e-01 3.1509754447143146e+00 2.0998569769876909e+01 -11 -31 -31
110 1 7.5145519431964107e+00 2.0321617753367907e+00 1.7512121646110511e+01 25 -36 -26
406 1 7.7763000593488520e+00 1.0523137883968786e+01 1.9686681151769065e+01 40 136 0
317 1 1.0467924484221490e+01 1.1101902647274347e+01 2.4459953829018925e+01 123 -34 -30
300 1 1.8864851415101147e+00 8.1540999454374719e-01 2.0389991789567880e+01 -70 65 26
501 1 9.9547648090686689e+00 9.0706496157653778e+00 2.0399103446724158e+01 34 -15 0
484 1 8.1325329517775540e+00 5.6300639559026919e+00 1.5989776679579688e+01 -43 -18 89
112 1 4.3651270203180355e+00 7.2505097636229765e+00 1.8697782172421192e+01 23 95 -43
221 1 1.0236469095627722e+01 6.6642571320819863e+00 2.1784375865784696e+01 -1 -1 34
200 1 6.3650779485660891e-01 1.0010988776691164e+01 1.4124988947833149e+01 64 86 -18
1 1 1.2850336783170619e+00 1.2271274836886597e+01 1.6184689659840007e+01 -47 -42 65
237 1 8.0208952585477657e+00 1.1208105695872534e+01 2.3737916378405977e+01 21 -33 -16
215 1 2.6407017012740002e+00 2.8257225212810801e-03 1.3639004498802725e+01 10 -138 -39
261 1 1.1243968200720142e+01 1.1882605580418930e+00 2.1098866399323001e+01 11 41 -115
448 1 1.2121247737670139e+01 3.6737562900595382e+00 1.4373684433355788e+01 7 -34 -8
64 1 1.4304526305916245e+00 5.6534336125001303e+00 2.0373574550483028e+01 -39 64 16
199 1 1.1457564760900812e+01 8.6684274697904637e+00 2.3357511670872199e+01 19 69 -20
175 1 1.1989270030963681e+01 1.0221555575390063e+01 1.4482002983952327e+01 38 5 -19
302 1 1.0949081417596325e+01 8.3736534308751303e+00 1.8013490676216286e+01 39 -68 -26
356 1 7.4508993632221552e+00 1.2206593021761108e+01 1.6326509732436250e+01 -53 0 -3
81 1 6.0298189873860668e+00 4.1349317798564069e+00 1.4617868658392247e+01 46 97 -26
301 1 6.4841736167831741e+00 7.6151302470103737e+00 1.6804453736749753e+01 118 29 28
444 1 3.6210967570262174e+00 5.8913354344032207e+00 2.2246411121863613e+01 -5 -29 18
154 1 8.5531856003800293e+00 3.5298671762232936e+00 2.0792156220608838e+01 95 -31 1
277 1 5.1595445570297347e+00 8.8148698453918133e+00 1.4805107602587185e+01 45 2 105
396 1 1.0724978649483271e+01 5.9483279562176445e+00 1.4884965294336869e+01 -6 0 15
108 1 8.3752393100353473e+00 9.6605539957561710e+00 1.7136551798152986e+01 35 -40 33
242 1 3.8418699735172481e+00 5.7504461217376308e+00 1.3172523692530280e+01 11 5 -48
374 1 3.5025733771739085e+00 9.9826762344105155e+00 1.8266550184683133e+01 -5 33 0
286 1 2.9515305668518055e+00 4.0027480779963343e+00 2.4298683252394728e+01 47 -11 11
394 1 3.7563988002164632e+00 1.0808632725206152e+01 2.2630592415609719e+01 -110 -1 -18
100 1 5.6235411015490444e-01 6.8723978355737394e+00 1.5675631583970516e+01 47 -122 -21
485 1 3.5671464298135565e+00 3.4335498799142434e+00 1.5889573529004062e+01 -11 -5 78
496 1 5.3128958242792761e+00 1.1665641987934382e+01 1.4515410869011211e+01 -2 -23 25
216 1 3.0935995276196127e+00 4.8118243913479777e+00 1.8243384076273685e+01 -35 -1 161
245 1 1.1139159369674692e+01 3.8058227332084957e+00 2.1124474470523559e+01 -19 15 97
40 1 1.0235379865837111e+00 2.2468546319782554e+00 2.3841411034158089e+01 15 36 59
127 1 9.1507824836966201e+00 9.8178234142514000e+00 1.4177329792990291e+01 56 74 77
481 1 9.3937582641117068e+00 1.0647510310517065e+00 2.3223173833129970e+01 44 -18 -11
367 1 3.6381832788704926e+00 3.9878062220295510e-02 1.8248770101909628e+01 6 -1 60
98 1 3.4414730278129058e-01 1.2358982392028915e+01 1.8725096006309993e+01 72 69 2
288 1 1.2221352513164605e+01 1.1856558944300028e+01 1.6657231787987492e+01 -62 -22 -84
28 1 9.0292475469499145e+00 5.8373257021437119e+00 1.2489030132308368e+01 8 30 24
339 1 8.9045939452021337e+00 1.3482396561855703e+01 9.5859549530465191e+00 31 41 -2
235 1 2.4598176161336447e+00 1.3243030691539595e+01 7.6579921819469576e-01 20 -62 140
416 1 2.7153282580887605e-01 2.2976533696085717e+01 4.7000866511158819e+00 -3 -35 20
417 1 7.5104386661475897e-01 1.8752482959665361e+01 4.5366653997407447e+00 8 -1 -14
469 1 1.0966262340960236e+01 2.2554627642303629e+01 3.6743448733723163e+00 46 12 31
350 1 1.1657304388052893e+01 1.4928308761028713e+01 3.2651777179272474e+00 17 -5 36
181 1 7.3224921934225389e+00 2.2305595377179731e+01 2.9503874977397976e-01 80 67 -46
141 1 1.1061379421687647e+01 2.2765501305418134e+01 1.1271199318649732e+01 96 68 -2
113 1 8.6867107636245979e+00 1.7916704988480177e+01 4.9482880906354971e+00 -44 30 85
87 1 3.5097615867243985e+00 2.2769886163227628e+01 6.1499207708735701e+00 -5 38 82
279 1 9.7276904997677001e+00 1.6749114614516305e+01 2.6172434946364356e+00 -35 160 52
499 1 5.2425323376718884e+00 2.0846535647789999e+01 1.1648283088555427e+01 46 -26 -78
495 1 8.4535318914345436e-01 1.5062432384793674e+01 2.1942630631934987e+00 -37 17 -60
479 1 7.0672613260028259e+00 1.2782181753788031e+01 6.1880365773556312e+00 -32 -8 -45
289 1 3.5183445999027185e+00 1.6261135959496105e+01 6.8380668035333354e+00 -25 -7 -57
184 1 5.9313080303315733e+00 1.8805767657644147e+01 5.2947749170376301e+00 1 0 35
52 1 2.5014874974894972e+00 1.7045927815199015e+01 8.5441159283589008e-01 104 -79 138
254 1 2.9804945370046538e+00 1.9070245799464463e+01 7.7137855415281535e+00 45 96 37
252 1 4.4059953030288854e+00 1.3273507466183741e+01 6.9190225751840737e+00 -56 -80 5
386 1 2.9936745972650596e+00 1.9078551292604459e+01 1.0537555991694273e+01 79 -49 -1
464 1 2.3674049422639714e+00 2.1594300619994428e+01 1.1808511440052735e+01 21 23 -24
65 1 8.6925292451181946e+00 1.6346100460099063e+01 8.9827573405239249e+00 -33 72 -10
467 1 1.0638511688860225e+01 1.3780374609540059e+01 5.6248032542904021e+00 -59 87 44
405 1 3.4907403440620155e+00 1.3720236503077187e+01 4.4990537750786617e+00 -15 -4 55
196 1 6.9632040094023742e+00 1.7746142753878434e+01 1.0318187484235930e+01 12 18 15
400 1 4.8288989999702876e+00 1.7664248314615048e+01 2.7386751506277025e+00 57 24 -23
76 1 1.1262034270834251e+01 2.3585458061989812e+01 6.6487088437788779e+00 22 33 12
17 1 1.1735495638434272e+00 2.3106046707266504e+01 1.6946713905075319e+00 47 20 17
114 1 6.4161330072074234e+00 1.3636299828889882e+01 3.6674593967730940e+00 -13 6 -9
169 1 5.3842020038827765e-01 2.2545234900564346e+01 1.0106322590259195e+01 0 30 4
53 1 9.6273323260987134e+00 2.1122570924874044e+01 7.6074922498533049e+00 62 100 147
2 1 7.1648170621005720e+00 1.6018418257223658e+01 2.1738266590701154e+00 -45 1 -12
282 1 1.6618155217278250e+00 1.3125185200889424e+01 1.0526658487445085e+01 40 28 74
140 1 5.9416724327453911e+00 1.9205020422800292e+01 8.0598622920075762e+00 -63 25 -8
229 1 2.5455768798181206e+00 1.6448150164479852e+01 4.3738693271737770e+00 47 24 24
266 1 1.0820792603021033e+01 1.8797669875015671e+01 6.2396108582859346e+00 37 -60 16
382 1 1.9820583792441268e-01 1.8227775066741259e+01 7.3078455267766698e+00 49 -14 63
185 1 1.1948125152604955e+01 2.3159846315880159e+01 9.6415640361360477e-01 0 10 -8
253 1 1.0670031476019142e+01 1.8533493314103946e+01 9.3480486291402212e+00 3 15 -3
273 1 7.9794285984008111e+00 2.2697914201796284e+01 5.9413692211513212e+00 75 174 114
84 1 1.2293686524877028e+00 2.2992006497055467e+01 7.4964783751030994e+00 37 59 33
201 1 8.5624616419506765e+00 1.5390438922308455e+01 6.1344271551716130e+00 -95 -53 33
247 1 9.1709937906643919e+00 2.0809469204146026e+01 2.1242056044367787e+00 20 -17 19
509 1 1.9206460844305435e+00 1.4280447488646709e+01 7.9077156497195800e+00 116 46 -81
172 1 3.2596578155446632e+00 2.0055804370310362e+01 4.8546029962498327e+00 -26 -109 40
179 1 6.1093767660501923e+00 2.3173440600598560e+01 1.0468814993777089e+01 -68 -72 -44
243 1 8.5694052755304480e+00 2.1747038147637081e+01 1.0161964344228149e+01 17 -36 -26
11 1 6.0225872039780848e+00 2.3519990310516114e+01 2.2715603966532467e+00 12 70 -45
82 1 1.1245724342322051e+01 1.8989740117360121e+01 1.5686196947064266e+00 -3 -4 8
103 1 6.4322918510340239e+00 1.3707545764498565e+01 1.1929347993638617e+01 -19 37 -51
143 1 6.9048354511711532e+00 2.1224608591535713e+01 3.6444178013053965e+00 44 7 -3
424 1 5.8241785324592934e+00 2.1947971663874426e+01 7.9058663346644664e+00 35 0 -22
397 1 3.4974746418938256e+00 2.1905167493167177e+01 2.5246529846158734e+00 -47 63 -46
395 1 3.8197503658593956e+00 1.9625695518698603e+01 1.1825371490546577e+00 -34 39 -56
507 1 7.9675322045841019e+00 1.9639443460006341e+01 1.1997397899991638e+01 -56 22 -17
210 1 1.1874643961046871e+01 1.6505015841390900e+01 7.7285139831796146e+00 -5 4 49
442 1 1.2886155095319316e+00 1.7279501380071480e+01 1.1648911380595756e+01 24 -13 -105
259 1 2.2151720912727874e-01 1.6010599584483565e+01 9.3547712147804614e+00 1 52 29
502 1 9.6005681136982801e+00 1.3840352207014650e+01 1.2196011843183472e+01 -47 -33 -50
137 1 4.2489096710918846e+00 2.4745473617239966e+01 4.3211846537058509e+00 -3 -25 56
311 1 1.1327531831655562e+00 1.2539180058464918e+01 4.0419440535516014e+00 12 -49 18
468 1 6.4316623276356841e+00 1.2947905835389315e+01 3.9682334118229434e-01 69 6 -47
25 1 4.1326505831277887e+00 1.7339374110303083e+01 2.1439073283813080e+01 54 -73 -47
30 1 9.4316233712133606e+00 1.8403216635376488e+01 1.8968537827277842e+01 -79 5 -16
349 1 7.0925223147055121e+00 2.4435208929037447e+01 1.4966612588563947e+01 -6 25 56
232 1 3.1289510540869752e+00 2.4026263708394076e+01 2.2222878725616390e+01 86 33 30
188 1 8.4003364189341294e+00 2.1015968548278966e+01 1.7504480010809253e+01 9 -2 66
332 1 7.1640128402607512e+00 1.5882984490518645e+01 2.4260934296788534e+01 10 -25 -105
268 1 3.9217331470048835e+00 2.1515394278028495e+01 2.1935471811848696e+01 -114 1 -10
330 1 6.9428320679859619e+00 1.4834612909265250e+01 1.6885429531699423e+01 -15 24 43
270 1 1.1780151409571268e+01 2.1592671650043645e+01 1.7925965419707463e+01 21 127 112
480 1 3.8286602899317148e+00 1.6858860852903334e+01 1.4114732034220987e+01 8 -52 74
325 1 1.0063911553217557e+00 1.9034773029186212e+01 2.4599898153200247e+01 -82 36 34
458 1 8.8501266374693444e+00 1.9244554074769969e+01 2.1700137522016085e+01 -33 45 4
487 1 1.2075828474191688e+01 2.0714710097304557e+01 1.2629624421862985e+01 36 46 -9
260 1 7.7552982788506748e+00 1.6542438910735896e+01 1.4770368458037865e+01 -35 1 62
105 1 6.0337411752134917e-02 1.4158924086219475e+01 2.3195830233939063e+01 -1 92 19
139 1 5.0313864996561000e+00 2.3219313813798031e+01 1.6659200252818788e+01 -11 -5 -24
173 1 9.1867948711346141e+00 1.2818289904208340e+01 2.1409932825773545e+01 39 56 -14
362 1 3.0045701013313946e+00 1.3531318839111711e+01 2.2968464250321833e+01 -56 -24 -65
255 1 9.7092228529803677e+00 2.3034657834275453e+01 1.5272612207114706e+01 -130 7 77
74 1 1.2147526557706602e+01 2.0572808186353971e+01 2.2140539508913687e+01 2 59 -14
91 1 1.1451996396057833e+01 1.9292574654727748e+01 1.6396124130132307e+01 -32 5 17
178 1 3.9186865947120135e+00 1.8609011178161929e+01 1.8786693005190749e+01 73 30 -60
72 1 4.7807422819431133e+00 1.4084333276496524e+01 2.0808636562448996e+01 25 60 42
27 1 1.1921810846141158e+01 1.3795449846697135e+01 2.4303260756804956e+01 17 -30 55
68 1 3.5732651586898410e+00 2.1135097585324818e+01 1.8961057124247006e+01 2 -23 10
399 1 6.6556829412478997e+00 1.8004511624479449e+01 1.7953308229405028e+01 14 64 -14
244 1 4.2627991484927295e+00 1.5495955482925559e+01 1.6611079651865722e+01 -36 69 10
222 1 1.0456814228359786e+01 2.3577744187959645e+01 1.9456429091569106e+01 19 56 46
303 1 7.6458771230451381e+00 2.4036781989630569e+01 2.0210874924294512e+01 29 -7 196
8 1 1.0724893036205795e+01 1.8356571592078449e+01 2.3910855441303205e+01 -15 27 -36
391 1 4.3174832699114685e+00 1.5900566919949092e+01 2.3944087188361927e+01 -88 -23 -4
83 1 6.2180112338742175e+00 2.2180302761285891e+01 1.8627691133746424e+01 45 7 -1
425 1 9.9793581692852786e+00 1.3191130214460328e+01 1.7202138481955323e+01 73 32 -5
280 1 2.9875682924894931e+00 2.1947334163160232e+01 1.4501759949722089e+01 13 -44 149
392 1 1.0780159721411771e+00 1.6404109187095994e+01 2.1434233281236288e+01 11 19 -61
419 1 1.1776220708143542e+01 1.6996499231274850e+01 1.8151788904958877e+01 40 14 9
388 1 9.6750100884167178e+00 2.1889552329403497e+01 2.1557303209436412e+01 57 -10 28
415 1 6.4942567555157567e+00 1.8397359372016471e+01 2.2800521919576543e+01 -58 -48 19
157 1 1.1014790534529499e+01 1.5531793129876814e+01 1.5827819812096910e+01 -8 -27 67
431 1 5.4234389268000678e+00 2.0657579564339265e+01 2.4090181037200402e+01 -73 -34 -23
351 1 2.2804967441821256e+00 1.9165260777172676e+01 2.2144958069913063e+01 21 -31 -65
122 1 3.7818172531120684e+00 1.3192834383224614e+01 1.2634246736481654e+01 0 10 6
75 1 8.2802678663174909e+00 1.5952072207155735e+01 1.9399720071399638e+01 15 41 6
471 1 9.8680370504376018e+00 1.5809163221502718e+01 2.4657773652022261e+01 -83 -16 17
446 1 7.5039618728507067e+00 1.9255980349131264e+01 1.5319157657097000e+01 24 34 -15
150 1 1.2061369198359021e+01 1.2722676135031810e+01 1.3062823971412788e+01 79 -38 77
231 1 3.0932799877137485e+00 1.5760979254939645e+01 1.9132135553818276e+01 -40 9 35
449 1 1.0002561526642497e+01 1.9240285037861845e+01 1.3859825287366963e+01 -50 69 31
16 1 1.8103350841863068e+00 2.1373586171308091e+01 1.7018648129025753e+01 141 95 5
463 1 5.7147272877534905e-02 2.0957910042715106e+01 1.3790262707866081e+01 -35 26 -38
359 1 1.6352960667916998e+00 2.4344019868920750e+01 1.6427940782178890e+01 -34 44 3
511 1 9.9050723088780401e+00 1.6326136521953170e+01 1.3496883552285032e+01 41 2 94
459 1 9.7435363893477600e+00 2.3296563220760763e+01 2.4096184663176150e+01 61 -10 50
364 1 1.0636715003930959e+01 1.4519340217749479e+01 1.9609804582954350e+01 106 15 -3
174 1 5.0597432727090474e-01 1.5198644270870451e+01 1.8581538518846394e+01 16 97 -25
497 1 2.6805578516849851e+00 1.8749852363473384e+01 1.6103311233270528e+01 -5 31 21
287 1 7.1498310847177837e+00 1.5067670971400620e+01 2.1689724458086108e+01 -23 -10 -7
483 1 4.8833116920281219e+00 1.9798501917415582e+01 1.4475358284937540e+01 38 67 12
240 1 6.1281145016010159e+00 1.6263431715641783e+01 1.2541822546764232e+01 -222 141 57
145 1 1.9164603117701435e+00 1.5139261000494251e+01 1.3220840661052264e+01 35 -8 -46
342 1 9.8161461682565001e+00 2.4569052166490600e+01 1.2800200542458011e+01 27 -9 15
418 1 1.4145775273817391e+00 2.4409491668509382e+01 2.4153028403176432e+01 -72 -66 -16
327 1 4.9950362330826792e-01 1.9881481400269731e+01 2.0222543047595508e+01 88 0 1
385 1 3.8656536471826848e+00 1.2760468602263417e+01 1.6659353227461910e+01 43 31 44
4 1 1.3984823228573042e+01 9.8324659848063583e+00 1.0363539475695681e+01 24 -81 7
146 1 2.0548767857558492e+01 1.1714806755343336e+01 1.0593914609412336e+01 -7 0 13
440 1 2.3471435370221748e+01 5.3398627611386029e+00 8.5451401376598568e+00 -29 -38 122
191 1 1.2991018634642687e+01 1.2211879058491162e+00 1.2962230491059448e+00 46 -24 -15
320 1 1.3844817474134210e+01 9.8759122550220475e+00 7.6248647892967698e+00 24 84 42
93 1 1.7115327383173813e+01 7.3876679469074702e+00 1.1912944999480390e+01 -37 -11 12
224 1 1.5107142647485002e+01 5.7468058583446844e+00 1.0876797224116244e+01 63 -89 5
335 1 2.0971617803474032e+01 1.2081816862533504e+01 7.5423911514520441e+00 18 -23 96
166 1 2.4620848550546576e+01 6.5029226643113436e+00 6.1935098178841779e+00 32 -11 -20
403 1 2.0415925632255739e+01 5.8116519548125112e+00 5.9232423683547317e+00 -67 42 11
493 1 1.2885300055962237e+01 1.1763405255127287e+01 5.7330437751157941e+00 -55 99 45
230 1 1.6786401468951578e+01 8.8263844786822983e+00 7.5805908776228641e+00 0 -24 -139
194 1 1.7204372882248297e+01 1.6761518109682616e+00 3.2607977429482227e+00 40 106 3
389 1 1.6004071754054568e+01 6.3261945101727002e-01 1.0699203762883955e+00 4 69 -18
492 1 2.2803304339378499e+01 5.7851317606754060e+00 4.1710749615450462e+00 -6 -28 49
33 1 2.4015144385888728e+01 1.0768356536062697e+01 7.1569949045119667e+00 -105 -37 -19
358 1 2.0942231163153874e+01 2.9117515634138660e+00 8.1828078052420175e+00 -26 94 39
316 1 2.0935358549215472e+01 9.5987532628212175e+00 6.1217147902850921e-01 40 121 73
312 1 1.6269372220023094e+01 4.1725274025121362e+00 1.1070704310921207e+00 -5 23 22
246 1 1.4383546744141219e+01 2.0268534716675246e+00 5.3251359611468203e+00 71 57 102
272 1 2.4419289588252166e+01 6.5117060645627616e+00 1.5740139304712294e-01 -22 4 107
313 1 2.0856193939400079e+01 7.2888936723886406e+00 1.1352450282528395e+01 -50 29 35
323 1 1.3832204871821903e+01 6.3223077551172873e+00 3.6529286706648936e+00 19 -106 14
213 1 2.2727391045137534e+01 2.7789149267040978e+00 4.0799940393186214e+00 -57 -10 12
436 1 2.0630669250139920e+01 6.0790164546746031e+00 6.2063059225110428e-01 38 72 23
354 1 2.2397572472502365e+01 7.7650902811284093e+00 9.2744815085603634e+00 16 58 20
125 1 1.7397995033950735e+01 1.7531109732849199e+00 1.1470146516696639e+01 -47 -39 -13
443 1 1.4030468010417771e+01 3.4889845237093260e+00 7.5615537439997746e+00 -101 31 -13
298 1 2.2127927526581320e+01 1.0348784306251549e+01 2.9580938694830494e+00 7 40 5
377 1 2.2716049451795577e+01 7.6379573836534922e+00 1.9198461633247093e+00 19 8 -114
109 1 2.3158373432640008e+01 2.5661902987873724e+00 6.8521496628457657e+00 -87 -22 -47
333 1 1.5887765936794533e+01 5.1992569201828953e+00 8.4012702111447872e+00 18 33 32
214 1 1.3673954529183156e+01 9.8510858250320137e+00 1.4852026833933227e+00 11 93 1
104 1 2.3252403241917154e+01 1.0671121374125420e+01 9.8314819625935819e+00 76 32 -8
34 1 2.0763535011082592e+01 8.2535867448383406e+00 7.2101853056797722e+00 -117 -16 133
297 1 1.7352023431793494e+01 1.1995099519184221e+01 1.9308167046567337e+00 20 27 -6
111 1 2.1799541924255660e+01 1.0210732059882847e+01 5.7960810429235439e+00 3 44 91
423 1 1.8115445501390671e+01 5.9446660884917257e+00 4.4294330718696120e+00 -17 -2 60
271 1 1.7246881494307917e+01 1.1181414996684811e+01 4.5514747475759778e+00 43 30 -52
504 1 2.3230859770050539e+01 5.9296609552187629e-02 5.3673578226853600e+00 -40 -16 48
258 1 1.8075900098440123e+01 9.4905481960955207e+00 8.4290456230657917e-01 117 -54 71
85 1 1.4985071244650930e+01 7.0914616954179150e+00 6.1434534120803663e+00 23 47 -96
263 1 1.5874146881161188e+01 4.1800053646085189e+00 4.0287449679846139e+00 23 135 2
474 1 1.8941088088055587e+01 4.4205724371047532e+00 1.9366768182171996e+00 -8 -46 -32
437 1 1.6682520283817713e+01 9.6727791882399821e+00 1.0400052027311064e+01 5 15 -119
219 1 1.9004122682164258e+01 5.3796411696715003e+00 1.0794069300386649e+01 -28 -14 -97
503 1 2.4174444521846606e+01 3.6014799609465502e+00 6.1719205525720888e-01 -7 2 19
142 1 1.4866640468730447e+01 1.3121938641629871e+00 1.0008246253370187e+01 19 21 49
223 1 1.7028600762035399e+01 8.5171466727915579e+00 4.5873625847339818e+00 113 35 5
180 1 1.7952215882026895e+01 1.1477553607802811e+01 7.1830809900981327e+00 -2 285 -30
32 1 2.4834495409480983e+01 7.0720462258531747e-01 8.5237610381365503e+00 -55 112 -48
41 1 2.0196951991209446e+01 1.7795393055425197e+00 2.6594023383549827e+00 65 -1 41
95 1 1.8730089678369911e+01 4.7387618360705464e+00 7.9381182409113222e+00 54 132 -4
305 1 1.2745668538518752e+01 7.6821261945141206e+00 1.1147518709463418e+01 9 92 28
371 1 2.3832515466743480e+01 3.2651268660772783e+00 1.2217424257041923e+01 -75 31 -59
476 1 1.5674823794720387e+01 8.1375680055424571e+00 2.0612010434041910e+00 -35 -22 -49
438 1 1.3389919293454398e+01 5.5828457156296540e+00 5.5889698666726628e-01 27 -18 -57
451 1 1.4061896541760046e+01 2.7921605890980721e+00 1.2397258120831943e+01 69 29 -14
429 1 2.1427053693555902e+01 1.8757774021130549e+00 1.0834328138736819e+01 -32 -33 42
101 1 1.9226017341646038e+01 9.5095805509165707e+00 1.2115717426785565e+01 -29 -18 59
209 1 1.9328419716778093e+01 7.8818823026026053e-02 1.0737457548265965e+01 0 12 -39
319 1 1.3053478635596734e+01 1.2224280521528424e+01 1.0323194969468670e+01 -37 0 48
310 1 1.7738494633080560e+01 1.2335710883809723e+01 1.0665017671628851e+01 -13 -17 15
115 1 2.3954125642130563e+01 1.2345377085245076e+01 9.7657881254302761e-02 75 -153 29
80 1 1.5113222923626317e+01 1.1581889743270525e+01 9.3922902938057717e-02 32 45 11
408 1 1.8857476946511479e+01 1.0180618098124691e+01 1.8538182234349271e+01 -140 18 55
457 1 2.3529112697957544e+01 6.9711182335193094e+00 1.2570232647528975e+01 -12 -32 72
195 1 1.3120601637896330e+01 6.6829072302578600e+00 1.8739269945839723e+01 -17 -10 76
89 1 2.1307962664646155e+01 1.2585289305527974e+00 1.7079811393861213e+01 -12 8 -179
170 1 2.2807706939049933e+01 9.1011621238325642e+00 1.4412278922810327e+01 16 44 -19
236 1 1.8995013399024767e+01 6.1328432598251172e+00 2.1543891825808327e+01 39 74 63
97 1 2.0043292496246053e+01 8.7650952545769609e+00 2.0733881032136438e+01 20 61 -17
347 1 2.1816364916571025e+01 9.3016849732717013e+00 1.8322746105195538e+01 -119 -2 -4
96 1 2.2548576888729126e+01 3.8367022209062331e+00 2.1728308077327270e+01 228 41 67
78 1 2.0790861991143544e+01 7.9285474245660650e+00 1.6015382705486513e+01 -13 -57 -22
435 1 2.4610779018067149e+01 6.9126356647329446e-01 1.3252504074886545e+01 -43 -12 -13
307 1 1.8353416739027587e+01 8.5056498109775216e+00 1.4568542260239008e+01 -52 101 -9
45 1 2.0761609610744166e+01 1.0072509356802619e+00 1.9975306134979142e+01 -3 86 -73
233 1 1.5251727723725333e+01 1.0123471788980623e+01 2.2258007812998869e+01 -10 -33 -34
357 1 1.2920308823857036e+01 3.9380785575849924e+00 1.8778259554300430e+01 6 -11 -8
365 1 2.0456403185304090e+01 1.1744299234453310e+01 2.2741414539253586e+01 -7 70 -26
51 1 1.3984605735717613e+01 1.6830463664468670e-01 2.1213189791064995e+01 36 -6 -44
225 1 1.4360403557361137e+01 1.3961537796556267e+00 2.3616697133587877e+01 25 82 19
324 1 2.3539791129501719e+01 4.8829888889727844e+00 1.4592427496956493e+01 -6 -59 75
338 1 2.4005381735984233e+01 5.6378251780520372e-01 1.7212921040089331e+01 -1 -1 41
192 1 2.0604582515524708e+01 5.1703997325189226e+00 1.5184196137418539e+01 -85 69 -52
226 1 2.1912303514524261e+01 6.5789266031992790e+00 2.1670519969026202e+01 -5 15 -2
506 1 1.4966036711433061e+01 7.9170466296021029e+00 2.0486675705696459e+01 -16 -11 -5
387 1 1.7586427212110106e+01 3.0937550363785280e+00 1.8991507033518094e+01 80 -27 116
420 1 1.8403038844745758e+01 1.3695107810737858e-01 1.8649908597631331e+01 27 -33 119
293 1 1.6832888784883668e+01 5.6934434339400921e+00 1.7811522048534940e+01 6 125 56
383 1 2.1715428815188506e+01 3.6999799014359294e+00 1.7635665820352315e+01 -40 93 -28