LAMMPS data file via write_data, version 4 Jan 2019, timestep = 1000000

512 atoms
1 atom types

-1.3415136366188563e-01 2.4969151363664359e+01 xlo xhi
-1.3415136366188563e-01 2.4969151363664359e+01 ylo yhi
-1.3415136366188563e-01 2.4969151363664359e+01 zlo zhi

Masses

1 18.0153

Atoms # atomic

73 1 3.8415480991613515e-01 7.3686152191707315e+00 3.3194286114548124e+00 -57 10 20
441 1 1.1980400384158973e+01 9.9425152828704189e+00 3.2046542993011440e+00 -5 -64 -15
292 1 6.1677092521047259e+00 8.4887796710778947e+00 9.1977944980450612e+00 -15 22 66
366 1 5.3302813408007976e+00 1.0698961097514742e+01 3.4854251659858946e+00 163 -2 -43
190 1 5.4379367027019105e+00 7.1397216361913394e+00 5.5116194632842974e-01 99 90 25
258 1 7.1105927770962714e+00 2.0710173856189966e+00 5.1233211908795209e+00 126 -52 67
162 1 1.5338536612678422e+00 9.2395597123294841e+00 9.2854277406718140e+00 -43 7 5
192 1 3.1082959568930995e+00 1.0707979135751168e+01 4.9471032537058015e+00 -81 62 -56
460 1 1.1455973265023728e+01 1.0992619913527840e-01 5.6474017646365722e+00 -114 127 35
453 1 1.0858153922948642e+01 1.8315867768476051e+00 7.7322583206724369e+00 67 -4 4
267 1 9.9683555649437601e+00 4.4599880176943003e+00 3.8545015336878503e+00 -97 67 -58
384 1 1.2200558087288595e+01 4.6932100909354686e+00 6.4673995095824688e-01 0 6 7
311 1 3.6377708551371120e+00 9.6470366466794690e+00 7.5108232712542575e+00 8 -55 24
56 1 2.0747994952505171e+00 4.0109992275877939e+00 4.5137067033921374e+00 -13 80 26
67 1 6.3199700178172140e+00 4.6620994162734464e+00 6.8808093684938569e+00 -20 -84 -32
76 1 1.1881509203528893e+01 5.5731802192520998e+00 1.0870779172920939e+01 24 26 13
458 1 2.7682043432097929e+00 1.1126626537685311e+01 8.2122952392956794e-01 -35 47 -2
26 1 7.2948397629743562e+00 9.0213328206029875e+00 4.7956633728814557e+00 -22 21 68
450 1 5.7303076808747981e+00 3.0806380607434298e+00 3.2081309192586032e+00 126 -83 26
362 1 1.2189776717274075e+01 1.9114931493022320e+00 2.8141430582094915e+00 -53 -18 -61
467 1 9.5930917855328488e+00 4.3827937100517707e+00 1.8582719374468815e-01 -63 98 45
154 1 1.3404272639525150e+00 1.3942089614173079e+00 3.9666547239512999e+00 101 -28 3
194 1 9.9007655287218981e+00 9.5449222468670847e+00 5.1768201729684442e+00 45 106 8
339 1 4.6011850317893437e+00 7.1048134034279666e+00 7.2056099060319241e+00 30 49 0
14 1 5.0005967665673134e+00 2.3217214084816891e+00 8.7471479271414374e+00 47 -26 33
429 1 1.1947954162630063e+00 2.2934280913064868e+00 1.0519753887822286e+01 -21 -33 42
418 1 1.1775286913415055e+01 1.1976237344477093e+01 9.5943562344570292e+00 -75 -67 -10
364 1 8.7140120945639055e+00 9.8433812218682704e+00 1.0195782892804994e+01 108 15 -13
367 1 1.1157760212388336e+01 5.0621282427879466e-01 6.4792412135392485e-01 0 3 64
51 1 2.0027636771629287e+00 8.3089771553010614e+00 1.1863036996153014e+01 40 -8 -45
197 1 2.1440189827818488e+00 8.2442892614133996e+00 5.7991889803386529e+00 13 38 53
132 1 1.1771317362083047e+00 5.6336639296896172e+00 1.2479441524417250e+00 -48 -2 -68
89 1 7.7611862183020524e+00 6.1471498655891930e+00 9.1935448448834745e+00 -7 18 -179
167 1 9.0796120184363733e+00 1.8482801032263243e+00 1.0315477004239762e+01 27 -20 1
493 1 9.3607317736736251e-01 8.7645691876918241e-01 8.3575145188790998e+00 -45 93 45
11 1 9.4796513930247119e+00 1.2050776975399058e+01 6.0967680899390144e+00 13 73 -44
12 1 4.6374004436973673e+00 5.2971031209096164e+00 4.6747154874009738e+00 53 -35 64
426 1 7.8421535111794585e+00 4.7374186064097543e+00 2.3553314182767560e+00 84 -7 62
174 1 1.0660850098807543e+01 6.5372833701072146e+00 8.6586532796731639e+00 14 95 -25
256 1 2.8789463263937614e+00 2.1426718861029448e+00 6.4074194616284084e+00 35 19 -34
8 1 3.2758083369634448e+00 2.6706809660956234e+00 1.2298729712522917e+01 -31 26 -26
323 1 5.4996032653265523e+00 9.8533123763427461e+00 1.0264928603301162e+00 15 -112 23
145 1 1.8210042388113361e+00 1.6609967518800968e+00 1.0718308303509096e+00 30 2 -46
124 1 1.1401318282914284e+01 2.8199667495150620e+00 1.1996311729325765e+01 -55 157 -23
84 1 2.2190397827509378e+00 5.6897374852877656e+00 1.0530100818974820e+01 36 59 26
7 1 9.1141870966123886e+00 3.6701581679473181e+00 6.5345181375417027e+00 50 8 57
413 1 1.0296210447596051e+01 1.1303565366485955e+01 1.0744937884321721e+00 -25 8 -22
208 1 1.1908605836919435e+01 4.6094433447659364e+00 6.9704860641770647e+00 21 88 -12
416 1 1.0381787855760161e+00 5.5548026543686131e+00 6.8239780126302136e+00 -10 -30 24
42 1 9.4691041545540671e+00 1.6253763741058789e+00 3.7426288282634155e+00 6 72 -66
57 1 6.3628192801620136e+00 1.0306552067760119e+01 7.0900958968970924e+00 -24 0 29
22 1 5.5530503307174355e+00 1.3154666624695148e+00 1.1345516987749876e+01 2 -73 72
228 1 1.0355790222403295e+01 1.0338565518555495e+01 7.9873937948807363e+00 -36 23 21
93 1 6.2145164266574691e+00 6.9790467549912520e+00 3.3068132415322169e+00 -33 -13 20
506 1 4.6051537811904968e+00 1.1880723431650257e+00 1.1924007746166971e+00 -18 -22 -2
290 1 3.3962822804173824e+00 4.6236470404117673e+00 8.2823388038911769e+00 -9 -91 -74
46 1 4.7871491738696159e+00 7.9975689653698812e+00 1.1438009280789570e+01 38 -11 62
301 1 1.4915778685431316e+00 9.6616623041250289e+00 2.6593334001007087e+00 120 26 29
213 1 7.3109547875570167e+00 3.9567601171520286e+00 1.1185805603105919e+01 -49 -6 15
485 1 3.9319185457344057e+00 5.1088421815353122e+00 1.7460486300611207e+00 -12 -9 87
480 1 4.7570382324795979e+00 4.9949998538417839e+00 1.1975959629940458e+01 9 -51 81
81 1 4.8846378716428773e-01 1.2250047791152411e+01 1.2365087263765012e+01 52 94 -17
71 1 1.1811402435264972e+01 7.7168534840525886e+00 1.2342704792701399e+01 60 -66 -66
101 1 3.9887668216634486e-01 4.9643100587467863e+00 2.1501028139076638e+01 -28 -26 67
304 1 4.2639854346306558e+00 3.4993310666190443e+00 1.9375846632339673e+01 -19 -49 115
235 1 1.2156504163561006e+01 1.1690768372171808e+01 2.3819389782791863e+01 25 -58 151
437 1 2.6875238397010697e+00 1.1550033405378098e+01 1.6318447535972524e+01 14 9 -118
334 1 3.3474438948243588e+00 8.3153995933423347e-02 1.5716592782674191e+01 44 68 15
494 1 8.9675367811009075e+00 7.0808316326834246e+00 2.2075626750253157e+01 -6 58 -85
37 1 7.0097575891501895e+00 1.1123710657448926e+01 1.3563223711119248e+01 49 27 -37
115 1 1.0433675892773685e+01 4.2184642040098312e+00 1.4320542651429587e+01 74 -147 30
31 1 1.0903118561570864e+01 9.8008516985581231e+00 1.6554215741453028e+01 -54 -16 122
137 1 5.6916310728370947e+00 7.4733764148864257e+00 1.6220094204110477e+01 -3 -22 61
250 1 6.4990451883586182e+00 1.1486059641942116e+01 2.1331988500253754e+01 -13 10 166
112 1 9.6571051595706614e-03 1.1153065662894958e+01 1.6984280941314324e+01 17 85 -31
295 1 9.4419800561121203e+00 1.8446982362900819e+00 2.3511544071497191e+01 -48 -11 -10
259 1 7.6418938602416002e+00 4.7717002156492496e+00 2.1344915372002880e+01 -1 53 31
4 1 3.3711525912640612e+00 8.9545887141841209e+00 1.5737136410624467e+01 25 -76 11
171 1 8.6373936574095520e+00 2.9904613926268891e-02 1.9487029894046820e+01 -35 43 13
53 1 1.9479775701472706e+00 1.0191842106019488e+01 2.3457596006511189e+01 59 102 143
404 1 5.9277703243670166e+00 1.2514770941506066e+00 1.6532815422619141e+01 -23 134 52
447 1 6.6243329385875107e+00 8.2525276952792481e+00 1.3455216842700846e+01 -5 -117 27
13 1 9.4893819311059406e+00 9.7497922368257566e+00 2.2667026936742506e+01 132 -10 69
146 1 7.0865065941510199e+00 4.9754128320887618e+00 1.5407110409883757e+01 -7 -13 11
405 1 3.5419068948916532e+00 3.2102821084658459e+00 2.4466867732030483e+01 -23 -5 54
176 1 1.0933206951252259e+01 4.1204444296149996e+00 2.2271850875563104e+01 -93 -92 -24
385 1 7.8275622724130853e+00 1.1069848304991860e+01 2.4838310664661616e+01 46 26 49
473 1 1.2465786561285654e+00 1.1098623529153693e+01 1.9725748693508390e+01 -41 -36 66
104 1 7.7070536635707061e+00 5.9240543360506877e+00 2.4551579287554524e+01 79 23 -19
422 1 1.2347949043179710e+01 6.6197978989799138e+00 1.4982476595370793e+01 -11 75 70
94 1 6.1639515780233245e-01 7.4987095277493969e+00 2.4216483880779798e+01 -60 36 44
254 1 9.3943459782138881e+00 9.8561674541449591e+00 1.8746562206165869e+01 42 90 40
461 1 6.3212049455070929e+00 1.6403625391489323e+00 1.9530861085841263e+01 7 31 -12
314 1 6.5750850145184589e+00 3.1176149632499301e+00 2.3582201337273496e+01 -11 23 -6
249 1 9.1458678749605635e+00 7.0853684221649083e+00 1.9456902274069513e+01 -70 -47 -32
178 1 2.6736584441307119e+00 5.9830614051745092e+00 2.3094759118884937e+01 67 32 -64
118 1 8.0541683689866126e+00 2.4335318148844776e+00 1.4381941996900380e+01 -29 131 -81
236 1 1.1855610402470672e+01 7.0380992935633522e+00 2.1635918137879230e+01 34 81 63
350 1 8.9457084523566763e+00 5.0689284814896807e+00 1.7416407818871352e+01 24 -1 41
264 1 1.1540493889228833e+00 7.2054027277526140e+00 1.5598592793556289e+01 -108 27 40
92 1 3.6066554927951242e+00 1.0132296600991358e+01 1.3210650716731275e+01 -55 58 -108
138 1 9.9888074418918062e+00 2.6354167495200538e+00 1.6600756961302952e+01 184 40 17
394 1 4.8702107743561207e+00 7.7196898849864306e+00 2.2897508231786947e+01 -109 1 -21
177 1 1.6881148313292469e+00 1.7411635309309692e+00 1.4056610200150629e+01 -22 -41 44
188 1 1.2253513735453980e+01 5.1913797624536318e-01 1.3747655721508911e+01 8 -3 68
505 1 1.8317383518743380e+00 2.3263828466139866e+00 2.1994152203696515e+01 -5 28 -50
83 1 4.8313614019248119e+00 9.8613362688032300e+00 1.9482293319071243e+01 36 3 3
63 1 8.8473958669418149e+00 3.0411919564230874e+00 1.9640059288675371e+01 11 2 -96
210 1 1.1613057924610294e+01 7.2654951800231204e+00 1.7406082953439707e+01 -7 5 35
421 1 2.9211476391938960e+00 6.1343140888430652e+00 2.0144838380987398e+01 18 0 76
395 1 1.9846948321680506e+00 4.2897092941713781e+00 1.6164385239592015e+01 -34 42 -57
478 1 8.3947871359733881e+00 1.2342219402044952e+01 1.9728027893788003e+01 32 -6 31
391 1 1.6446871175135058e+00 2.1185315740048938e+00 1.9266853112515925e+01 -83 -30 -8
287 1 6.8815189408398556e+00 8.3362160891477615e+00 1.8396408206532971e+01 -18 -2 -6
153 1 1.0126613148358841e+01 1.0919417701615714e+01 1.4106291805678842e+01 5 -17 79
430 1 2.8003484254613782e+00 8.8669557637064553e+00 2.0806989849319514e+01 57 48 4
103 1 1.1784449692477759e+01 3.2621687697896360e+00 1.9513724003746280e+01 -23 43 -49
185 1 6.7998318394184523e+00 2.2384251210553874e-01 2.4672634493015835e+01 1 12 -10
91 1 8.3694944594335237e+00 5.9730926040450267e+00 1.3060673585284800e+01 -29 7 21
97 1 5.7852414614401351e+00 6.5864698292303352e+00 2.0333760116662791e+01 25 64 -7
157 1 4.5794119173653938e+00 3.7939655837794195e+00 1.6718105234844156e+01 -9 -22 60
451 1 1.0932733031215232e+01 1.1759618613637807e+01 2.1010189406267290e+01 67 38 -19
130 1 1.2116497040985339e+01 7.9367896486572331e-01 1.6452373341153780e+01 -15 -38 11
293 1 -1.0600102707057601e-01 3.3409694028840971e+00 1.7645822837898837e+01 8 129 51
436 1 7.2584355545291368e+00 1.2370536944919841e+01 1.7044258991248689e+01 47 70 18
499 1 9.2731425590475105e+00 3.0655915564114622e-02 1.4253303000275901e+01 44 -28 -71
74 1 9.3628956397593885e+00 8.7288764131560335e+00 1.2624383263920937e+01 4 59 -8
25 1 4.4730619590690459e+00 2.2645076392906169e+01 3.9978874390457255e+00 62 -80 -58
88 1 4.9332769337060949e+00 1.5967578412532827e+01 1.1767120832099108e+01 -21 22 59
16 1 1.2676732723351058e+00 1.3574133668845528e+01 9.7375692930252669e+00 143 92 5
271 1 9.5449750891406548e+00 1.4047033310158524e+01 1.0293391215915243e+01 39 26 -53
143 1 4.6589351454492576e+00 2.3547422432423115e+01 1.2215806886898564e+00 38 -2 -5
69 1 1.6945838559703452e+00 1.9093454171736859e+01 2.8935618773686680e+00 -16 1 -1
348 1 4.6100596728600243e+00 1.3412625855289912e+01 7.4544831761982300e-01 -10 -20 22
191 1 2.7659177307916565e+00 1.3264783908794774e+01 6.0058007592549441e+00 42 -18 -21
41 1 1.2569508636385947e+00 1.9663287047669307e+01 6.1807773071476202e+00 73 -12 37
111 1 1.2118849670000923e+01 1.3093632070514278e+01 6.8687275790226252e+00 7 45 88
489 1 1.0585888485334001e+01 2.0480487028018157e+01 4.5013255911031118e+00 76 183 -44
61 1 7.5013400787506299e+00 1.5820605459103907e+01 2.3975852822815953e+00 89 -59 101
330 1 9.6623423890534692e+00 1.8061389654991785e+01 7.4047854167395668e+00 -14 24 35
80 1 7.5709602927313191e-01 1.8276285148629789e+01 1.1529239410225609e+01 29 51 7
456 1 3.2831404626797100e+00 1.2451053529955921e+01 8.4653068706422481e+00 -31 -37 10
158 1 2.2653437256586102e+00 2.3762009250986711e+01 7.3592420577097588e+00 -65 59 -87
195 1 1.2910669977516946e+00 1.4442440041704502e+01 2.9098147707839326e+00 -17 -6 75
345 1 8.0111172794249637e+00 2.0011530903063687e+01 1.7589032352211995e+00 87 138 -18
59 1 4.0089457402120798e+00 1.8019571052160668e+01 1.7988863994165019e+00 43 -97 56
262 1 7.0223217515654843e+00 1.3256907455648751e+01 7.1415654079994093e+00 7 47 -44
266 1 3.8030109864015729e+00 2.0038851539807435e+01 4.8543916688829167e+00 31 -57 16
109 1 8.0476940903798262e+00 1.5750132294518030e+01 8.4868814509659707e+00 -84 -38 -52
133 1 9.9721054907859088e+00 1.6789933435916979e+01 1.1662196408840295e+01 -35 74 -42
496 1 8.9728841431358433e+00 2.0141345640575278e+01 8.9721958422574222e+00 -4 -22 18
412 1 5.2338624389996973e+00 1.4451356823013377e+01 5.5271223879043525e+00 -20 21 -66
298 1 3.4192051967099397e+00 1.8011182245640470e+01 1.1008574615255643e+01 8 41 0
240 1 2.0760117490624269e-01 1.2617930420280626e+01 4.7594222029217219e+00 -225 135 63
155 1 6.3157574511647461e+00 1.3345633015957509e+01 3.2545915149015405e+00 -53 31 32
98 1 7.9227992031113619e+00 1.9759599305548157e+01 1.1791645773591799e+01 71 74 0
64 1 1.1554144949018749e+01 1.7188403930811855e+01 3.7535485968501727e+00 -34 61 18
399 1 5.1008753567055889e+00 1.3359125520038981e+01 1.0178679175779905e+01 24 63 -15
135 1 9.8440495596877255e+00 2.2802382556547219e+01 6.1033819633566200e+00 2 52 -69
29 1 1.6610942762379282e+00 2.1211399873136465e+01 8.4252131793928271e+00 57 -39 -30
420 1 6.5113726270226318e+00 2.3795574714464504e+01 1.0355557346577614e+01 29 -28 119
149 1 5.0646540154506976e+00 2.4680402690603472e+01 8.0175677079502936e+00 -51 55 -3
221 1 5.2289285285606191e+00 1.9270027818944232e+01 7.1470098202329799e+00 2 4 45
6 1 7.1272613140768915e+00 2.1240646629331277e+01 6.7484881629461215e+00 83 20 -28
198 1 5.3957443021375422e+00 2.1648112140959253e+01 1.0935071230342180e+01 -36 44 11
95 1 5.7246154797293656e+00 2.4765637017106577e+01 5.2416776696319429e+00 61 129 -8
113 1 -1.3183894854250866e-01 1.6223917595191665e+01 9.4981303187388075e+00 -46 27 87
9 1 8.7271415532037313e+00 2.4768684530035650e+01 1.8832491603380328e+00 -39 36 14
181 1 1.1701752611486985e+01 2.3422694088556995e+01 1.1425625535972260e+01 83 70 -58
62 1 1.1105867154517183e+01 2.2304008590312637e+01 8.8306626657913672e+00 80 -27 -52
508 1 8.8392597590092006e+00 1.8330913012755612e+01 4.7531874424459515e+00 5 19 -61
239 1 4.0132213077039101e+00 1.5228555118016384e+01 2.7866604485849815e+00 44 -22 5
378 1 3.6971192181583050e+00 2.0211863428769053e+01 9.2916867394034863e+00 15 -16 -65
269 1 1.0601024563536519e+01 1.3988768018369308e+01 1.9555765422649452e+00 26 -34 4
442 1 1.9206245304996603e+00 2.3737072698421507e+01 3.2129300688072937e-01 20 -12 -102
15 1 7.9757641332087310e+00 2.3009236526280528e+01 4.1520577847565416e+00 6 -11 -140
281 1 7.4389103946014554e+00 1.7292785805031620e+01 1.0945453082432580e+01 34 -35 108
114 1 6.6638367761588988e+00 1.6962395856120668e+01 6.2487590348973496e+00 -10 14 -10
297 1 7.2007967550380592e+00 2.2520786688777637e+01 1.5601396877655960e+00 5 30 -12
3 1 6.4509076409549158e+00 1.8480271947915988e+01 3.4014663295359435e+00 10 50 24
212 1 1.9304274924305029e+00 2.3684757928047752e+01 4.5013836850477968e+00 -11 -41 -33
377 1 1.2139064620970252e+01 1.6996171389742742e+01 8.3400458965411168e+00 20 10 -108
500 1 1.1706892341687766e+01 1.8970127287193897e+01 1.1752692864517643e+01 79 -76 57
376 1 9.1036574578705043e+00 1.4978122431117795e+01 -5.9849149592019854e-02 -75 -4 -8
312 1 -7.0371402266044103e-02 2.0936477952467289e+01 1.0526801089890823e+01 1 14 19
219 1 8.9114757362648067e-01 2.1969626181061617e+01 2.2035917983000104e+00 -24 -20 -100
365 1 9.0721545301742079e+00 1.4037761927231806e+01 3.9702352876503326e+00 -13 74 -31
156 1 9.0310017666580986e+00 2.4553390450186178e+01 1.1560287716470965e+01 42 32 -17
134 1 7.2642614829157468e+00 1.2445394665879641e+01 1.0952028311060698e+01 -74 -10 17
60 1 5.5769098018674468e+00 1.5177490227813426e+01 2.2020533417834134e+01 -67 -21 61
402 1 7.1888915316440380e+00 1.3664873536631070e+01 1.4611967913755832e+01 38 56 -30
223 1 1.0479653643611378e+01 2.1716414020917949e+01 1.6920147328960763e+01 106 36 8
361 1 8.9805025016002915e+00 1.3928177626619211e+01 2.1994637339920427e+01 -56 115 -10
2 1 4.4935647797018223e+00 2.2844780234913614e+01 1.4957238450850635e+01 -48 3 -11
222 1 1.0700544342378633e+00 1.3766481258356706e+01 2.3608142217066391e+01 24 55 49
216 1 1.0277095672766739e+01 2.4801783157794517e+01 2.1803153085079991e+01 -33 -3 162
481 1 1.0774986980342376e+01 2.0156309187008965e+01 1.9142140783069237e+01 42 -9 -22
248 1 4.1512665174165004e+00 1.8142758429895011e+01 1.8901813053609715e+01 -41 31 -1
117 1 5.4638978045548932e+00 2.0592886540004482e+01 1.7766928304963344e+01 52 49 89
229 1 8.9099249866613484e+00 2.0819495435915734e+01 1.4986976678179508e+01 51 27 18
151 1 8.1100650178693687e+00 1.9734407652201924e+01 2.3848230350540121e+01 -43 -38 -7
280 1 8.2839731928107767e+00 1.6585318529936160e+01 1.8211047196002106e+01 18 -45 153
165 1 1.0942303956635755e+01 1.2990978708819757e+01 1.2493458570714099e+01 90 -16 98
470 1 1.0937856337185982e+01 1.9885509886491118e+01 2.3594538456721178e+01 27 -37 -135
168 1 7.0609705840610415e-01 2.3183626761260339e+01 2.2946430180766608e+01 95 -52 -54
44 1 3.5026695315843601e+00 1.5045354595117402e+01 2.4002179801052332e+01 -21 -37 96
343 1 2.9205553681733161e+00 1.7958070326350601e+01 2.3832342225169324e+01 -72 19 150
415 1 7.1531430664998634e+00 2.2517747010142024e+01 1.6495555767950101e+01 -58 -46 27
504 1 1.6184582643670271e+00 1.4110703964466618e+01 1.9577847133902299e+01 -35 -25 46
423 1 1.0904664981482627e+01 2.4032454811234302e+01 1.8444205120817919e+01 -17 5 58
140 1 9.5819114974393784e+00 1.5151282019602110e+01 1.4000765656339917e+01 -66 27 -10
425 1 1.0812036599079757e+01 1.7795783234916009e+01 2.1363313712611799e+01 68 35 -8
209 1 5.4338007483601052e+00 2.4261191552488789e+01 2.0474856282125060e+01 2 10 -42
318 1 6.3803981963650962e+00 1.8471239353292411e+01 2.2292965498004282e+01 42 3 157
33 1 8.3144737605600252e+00 2.0055041906241637e+01 2.0235971989126924e+01 -103 -38 -17
169 1 7.3507832153070929e-01 2.0794981539798343e+01 1.8504266887852623e+01 -12 33 4
238 1 1.3857450490480758e+00 1.7998125296041650e+01 1.8175944039501800e+01 52 19 -17
307 1 3.9289778533907747e+00 2.2612820023790029e+01 1.9225861575479577e+01 -51 97 -8
96 1 3.4228685266754946e+00 1.4173173277667399e+01 1.4890959457762332e+01 233 49 65
320 1 1.0303552231757006e+01 2.2698744597227073e+01 2.3656756142291258e+01 29 83 37
406 1 2.5196586017075961e-01 1.5416521849233542e+01 1.7406074452058132e+01 44 140 6
141 1 2.0563650306769161e+00 1.6647208181297440e+01 1.5552791831452002e+01 91 74 -11
486 1 5.8157980553749251e+00 1.4968836010107399e+01 1.7813969478931199e+01 47 17 -11
401 1 2.7080743943719865e-01 1.6739351532611739e+01 2.3510597047591453e+01 34 9 12
284 1 7.9380781437665906e+00 1.6342649634359777e+01 2.1113756892994303e+01 -82 -62 -10
252 1 1.1157558210749528e+01 1.5820265346910464e+01 2.3252987693732717e+01 -52 -87 8
275 1 3.9472716884510683e+00 1.8635723567733056e+01 1.4901910216506996e+01 32 -16 24
243 1 7.7525274040574148e+00 1.8551679353646339e+01 1.4556323371962225e+01 17 -35 -14
184 1 2.4914852579877556e+00 2.0855012217847058e+01 1.6069092582765190e+01 -2 7 34
469 1 4.5418622949618612e+00 2.2157112549278160e+01 2.3979355610776597e+01 44 12 21
253 1 3.8809448055510449e+00 1.9198535384485080e+01 2.1459959638077702e+01 -2 13 -4
136 1 1.0207983502688913e+01 1.2627070455068928e+01 1.6485592011970418e+01 43 -68 109
501 1 1.8700050580475286e-01 2.0578461779678410e+01 1.4383197498186295e+01 33 -15 -8
433 1 1.0191422206514469e+01 2.1239444718461392e+01 1.2741183613863445e+01 15 -48 -42
273 1 4.0396331487144970e+00 1.5564824064580723e+01 1.9906462546037623e+01 79 178 122
175 1 2.2354929194260356e+00 2.4800001893357614e+01 1.8191787836687425e+01 39 -3 -21
202 1 5.3420542778502478e+00 1.9652899640604947e+01 2.4763090010249094e+01 21 87 -23
105 1 1.0417198970299928e+01 1.7640263496224765e+01 1.4811700137803038e+01 3 85 13
414 1 8.2275204278294201e+00 2.2640910382095992e+01 2.0800443445208224e+01 100 13 57
502 1 3.4487034197284289e-01 1.7447523213344628e+01 2.0796548906026338e+01 -50 -28 -47
289 1 7.4801533785477092e+00 2.2499154902952736e+01 2.3750027802741823e+01 -16 -9 -52
396 1 6.6741726709339675e+00 1.3210208617856438e+01 2.3769596368093037e+01 -5 -1 17
193 1 5.3757323574471352e+00 2.0773151381757991e+01 1.3464892837474364e+01 -79 21 -12
226 1 6.0790014179317966e+00 1.8135934487081823e+01 1.6970618575554262e+01 -1 8 -1
1 1 2.0286120184191825e+00 2.1533570406229011e+01 2.0868549990814081e+01 -51 -42 61
203 1 1.2034882767857020e+01 1.2846016722370832e+01 1.8700882309246758e+01 104 -111 79
356 1 5.3856290220068530e+00 1.6050022808478509e+01 1.4776973868997421e+01 -64 0 -1
408 1 1.0859946160380465e+01 1.7671757116270772e+01 1.7565833629705534e+01 -142 28 56
353 1 1.2049475898481095e+01 1.4890499585819491e+01 1.5330207012125699e+01 -169 68 95
70 1 4.5604839854023937e-01 2.3078486030683720e+01 1.2794278474724758e+01 90 -7 8
459 1 8.3607083460744889e+00 2.4777425483351536e+01 1.6688036342193033e+01 62 -20 47
150 1 1.2480955927454035e-01 1.6693011122149642e+01 1.3412567327539289e+01 77 -34 75
87 1 3.4307189821629982e+00 1.2565190139561645e+01 1.2439113012704826e+01 -5 38 87
445 1 1.2109014887827282e+01 1.7736342842571400e+01 2.4880829329586657e+01 119 64 2
129 1 1.5577449880069604e+01 8.8814884052040810e-01 2.7766489883407006e+00 -44 -35 -82
340 1 2.1184237580275372e+01 8.9446727869083436e+00 1.2269813800906533e+01 54 41 18
299 1 2.2895635159330187e+01 5.6915515889344315e+00 9.4821829396907109e+00 45 16 53
352 1 1.8348352875223963e+01 6.0750442930755588e-01 1.0714649734424750e+01 42 -39 -65
241 1 1.3600134515471295e+01 9.3470791543419125e+00 7.3194994703481768e+00 -1 -113 -25
49 1 1.4223284719453037e+01 9.1777043683758546e+00 1.2334260001071087e+01 -8 31 -23
411 1 2.2859264272368730e+01 1.0784183994570496e+01 1.1245104583477350e+01 26 114 158
507 1 1.4212108144873660e+01 8.2866491026997871e+00 1.6629033478127127e+00 -56 23 -14
336 1 1.4090601341439733e+01 4.4576676405758473e+00 9.1531686961064285e+00 42 -11 -126
173 1 1.3826505996895975e+01 2.1943125423795831e+00 1.0768107846245732e+01 40 53 -4
435 1 2.4640636346966499e+01 2.1256688678297009e-01 1.1384578508642221e+01 -48 -12 -8
277 1 1.9048991313715383e+01 1.1392140589907084e+01 8.6349719259594799e+00 43 3 106
126 1 2.2893824949156528e+01 3.0709369209175388e+00 4.4945190297703039e+00 -36 -32 -32
321 1 2.4082107849496900e+01 8.4486678407777607e+00 5.6818993534255062e+00 44 28 -86
270 1 2.3393688102510282e+01 1.1857597051927486e+00 2.6210445379778231e+00 23 135 104
431 1 2.4849465152588170e+01 7.5141003517545562e+00 8.2082242800196870e+00 -64 -37 -31
27 1 1.7658853862359624e+01 9.4710156528462868e+00 2.8041893181089321e+00 13 -30 53
218 1 2.3084009719710640e+01 7.0736220839156854e+00 2.0917026260317528e+00 -56 -17 -24
389 1 1.5664507815241061e+01 3.9363920975846591e+00 6.2827856017974044e+00 5 69 -12
211 1 1.7602106923631656e+01 9.1906023179555181e+00 9.7305793651879249e+00 -35 18 -19
427 1 1.6247234163266320e+01 8.6816933785353818e+00 7.1134685654544727e+00 124 -12 27
373 1 1.9961620623291132e+01 3.5379767963618436e+00 4.1560198144975162e+00 50 42 -46
331 1 2.2178252310059385e+01 -9.0227907203519919e-02 9.6160954317063041e+00 35 25 -14
217 1 2.0487629766502813e+01 9.1842291293996929e+00 7.3278960168923533e+00 91 -47 79
300 1 2.0231326921062653e+01 3.7889839008835295e+00 8.0676772275364890e+00 -82 64 30
58 1 1.3315429420133084e+01 1.1338404082502514e+01 5.3270306872717397e+00 4 -16 2
55 1 2.4881373510966171e+01 1.1259788301614286e+01 9.2853171738337252e+00 29 64 -15
482 1 2.4732048413530169e+01 3.5749657498952212e+00 8.1909741366796851e+00 8 68 34
276 1 1.5999939409643570e+01 6.4222104458992826e+00 5.1635176525278608e+00 33 163 -22
86 1 2.0368991319891865e+01 5.8799304526083080e+00 2.5361553559705419e+00 -41 -57 86
127 1 1.3097946980929473e+01 6.8340172136405819e+00 5.5757078920046661e+00 55 69 79
346 1 1.6047827190223995e+01 1.1601617698668347e+01 1.8296958733931930e+00 44 34 -112
43 1 2.0144448972503415e+01 1.2067453986640258e+01 1.1278935849047995e+01 -9 -7 14
128 1 1.6347558456975108e+01 6.6497788559601734e+00 2.5618700079784675e+00 19 4 -22
291 1 2.2434523946690728e+01 9.2686987837128036e+00 3.3949741710727208e+00 34 105 75
107 1 1.8193546281311427e+01 3.1454841463477683e+00 6.3640528956734403e+00 -35 52 -134
17 1 1.9987674798522409e+01 8.1515959804509883e+00 4.5366579281153028e+00 44 13 22
333 1 1.8241264517836310e+01 7.3036912250745023e-01 7.7321094686783711e+00 20 34 28
294 1 1.4293926023307050e+01 1.0470319103154411e+01 9.8153231102514340e+00 38 40 -79
260 1 1.6503279278727504e+01 1.2066964058497881e+01 1.0036975812076856e+01 -33 0 60
52 1 1.9130123414271324e+01 1.6290640296989822e+00 2.3695373705713303e+00 102 -92 137
382 1 2.3404588007101893e+01 8.0051371625531136e+00 1.0819499464465098e+01 45 -11 57
85 1 1.5022168179961511e+01 3.3025188085310666e+00 3.7582167494684695e+00 19 41 -100
309 1 1.6726231433734689e+01 4.0047008025946784e+00 1.3794202803228977e+00 60 61 -46
279 1 2.2812692190877375e+01 1.0944212557355987e+01 6.9975147835229414e+00 -39 161 50
186 1 1.3681706138605259e+01 1.6078432142929331e+00 6.6097687375976539e+00 -23 169 34
498 1 2.4805298306724410e+01 3.1942775378371895e+00 9.2782051801513910e-01 38 16 2
347 1 1.8242980263378879e+01 1.0027275971074211e+01 5.8187547402060940e+00 -125 1 -3
440 1 2.0397244880113337e+01 6.4111925444080908e+00 8.2647766175881081e+00 -30 -38 118
19 1 2.0565486993954451e+01 2.1995767168049509e+00 1.0460068597389560e+01 11 54 77
344 1 1.2660642026835196e+01 4.7019100586889540e+00 3.3966907676318172e+00 36 -51 7
424 1 2.0239155383665896e+01 1.0124973973504797e+01 2.0008156735772040e+00 39 3 -19
288 1 2.3747623019655187e+01 5.8906571689845100e+00 4.9976283471575274e+00 -64 -27 -79
471 1 1.8638592338469188e+01 4.7829702777363927e+00 1.1281524234209941e+01 -84 -19 26
342 1 2.2443470618980651e+01 2.4387886458203507e+00 7.0870790499621128e+00 28 -10 13
28 1 1.5645095562681641e+01 4.9485487380994826e+00 1.1882291844306270e+01 16 36 27
21 1 1.9623861051799494e+01 7.2150660757808964e+00 1.0764497119782233e+01 12 -2 -117
246 1 1.9569337271791603e+01 5.7495107100943468e+00 -1.1238213665545646e-01 76 63 102
359 1 2.4887935061818034e+01 4.6439302651821803e+00 1.1568885801012328e+01 -39 48 9
341 1 2.4316297060029168e+01 1.1064878213503098e+01 2.4168482711542416e+00 43 -37 71
224 1 1.4809161115591028e+01 1.0420103259446464e-01 3.0854533636720233e-01 62 -92 6
510 1 1.4411843027870081e+01 1.0465446878035626e+01 2.4998500797078077e-02 -64 140 33
317 1 2.3861542099272704e+01 2.3082500337107925e-01 7.1025987923635565e+00 109 -29 -31
237 1 2.1167035734442248e+01 1.3781044853824460e+00 7.0000376902520556e-01 19 -33 -22
358 1 1.6209316391559614e+01 2.2638459168983371e+00 1.2114627401523135e+01 -27 90 40
432 1 1.7794766846712356e+01 7.8780645008825090e+00 2.7932101238943474e-01 31 -55 12
106 1 1.2546003362185679e+01 9.3566154033903803e+00 2.0311659235084729e+01 16 -18 1
164 1 2.3142698684094299e+01 8.9377095846178882e+00 2.0192458081006222e+01 56 23 135
233 1 2.0279528562041286e+01 1.7921821921662058e+00 1.4842065457502461e+01 -7 -27 -34
116 1 2.0670347613260436e+01 1.4089111671692955e+00 1.7594560980645365e+01 -50 1 -2
187 1 2.4530888779145400e+01 9.9042468597106481e+00 1.3490000335912697e+01 -3 22 -9
48 1 2.2493989140567134e+01 1.7085599567206140e+00 2.1081002576607801e+01 14 -2 28
123 1 1.5606188751977452e+01 8.9790192229897023e+00 1.8479954644697745e+01 -70 -2 2
247 1 2.3478227819475805e+01 1.1266931901608787e+01 2.4701048621945834e+01 12 -13 12
374 1 1.3313904783077982e+01 2.3420831173749153e+00 2.4630807142379709e+01 -12 38 -5
125 1 1.6368894664243438e+01 3.6368747512568853e+00 1.7503422868127799e+01 -44 -42 -8
479 1 2.0372267941670334e+01 1.0084348092875070e+01 1.4971745753439727e+01 -29 -11 -45
375 1 1.8983185530727724e+01 3.4382783455641794e+00 1.8235740784017246e+01 6 55 -122
490 1 1.6038696015173510e+01 1.2005513957405212e+01 2.3254876305484160e+01 11 -94 1
452 1 2.1959700018630851e+01 1.0736913168996544e+01 1.8321492542297232e+01 5 -4 83
242 1 1.7174490175440557e+01 1.1002744932441578e+01 1.7477955230500399e+01 9 3 -50
245 1 1.5083060864681956e+01 5.1051194100666186e-01 2.1124922033718544e+01 -23 10 91
428 1 2.0292631796396584e+01 6.0813938460412666e+00 1.7750505081403215e+01 64 -8 -4
335 1 1.3643777046462603e+01 2.7952453935376727e+00 2.1776568770005827e+01 17 -22 90
163 1 1.6568086002361614e+01 7.4920079573312064e+00 2.1005027814041565e+01 -43 -67 7
283 1 2.4884867031127364e+01 7.0411594199129688e+00 1.3034468872811631e+01 82 -36 67
397 1 2.1845365638402221e+01 1.3526721021631032e+00 1.2621256950350045e+01 -52 50 -47
474 1 2.3891354061431059e+01 5.1802372298224535e+00 2.3731492594231621e+01 -12 -61 -29
272 1 2.1166710675143865e+01 5.8364123643322410e+00 2.2735671276648954e+01 -20 0 104
100 1 1.3209061475011225e+01 1.0736609234623661e+01 1.7860665628745071e+01 50 -128 -19
443 1 2.4212524060105199e+01 2.7874220601586832e+00 1.3688685006064166e+01 -106 24 -14
492 1 1.5020876170416289e+01 6.5503510265764673e+00 1.3942878187140849e+01 0 -15 50
108 1 1.5522524425586827e+01 1.0345647274110949e+01 2.1204288387117806e+01 38 -34 31
449 1 1.5328083906939643e+01 5.3189177237679210e+00 1.9618553936580266e+01 -60 70 27
75 1 1.8972750843134307e+01 9.8453783895268412e+00 2.3448649857821625e+01 11 41 2