LAMMPS data file via write_data, version 4 Jan 2019, timestep = 4000000

512 atoms
1 atom types

1.4335526739403548e-01 2.4691644732605177e+01 xlo xhi
1.4335526739403548e-01 2.4691644732605177e+01 ylo yhi
1.4335526739403548e-01 2.4691644732605177e+01 zlo zhi

Masses

1 18.0153

Atoms # atomic

371 1 9.2380317830881751e+00 7.4889937560047457e+00 7.3418541758349525e+00 -82 36 -55
113 1 2.2186772593027748e+00 2.4360967523456414e+00 3.1908182790827646e+00 -42 28 84
460 1 1.0085485851456184e+01 2.7926494851214243e+00 4.1273681719376807e+00 -118 123 32
400 1 1.3837138334917938e+01 2.1541658721501262e+00 6.0226249675486505e+00 49 21 -20
59 1 2.1792154054533782e+01 1.2404506999706685e+01 7.4018605969410673e+00 38 -95 52
230 1 5.5869644975343524e-01 6.9986904288914626e+00 2.8850845041747970e+00 2 -28 -131
188 1 2.0396384926374843e+01 6.6759826597134628e+00 5.2473608784732280e+00 7 -1 65
19 1 2.1520817846460712e+01 4.7436887146841977e+00 1.3815320352515859e+00 10 52 76
124 1 7.6548840177323809e+00 1.1976855102666427e+01 7.1898507367367213e+00 -52 152 -27
160 1 1.4335067148611547e+01 8.6445885208781732e+00 5.3013197549769417e+00 -18 46 43
345 1 1.3437905973074024e+01 1.0966290825573102e+01 6.6570542807441324e+00 91 135 -22
60 1 1.2863635741074727e+01 3.2996513105544012e+00 3.5525413086860143e+00 -71 -20 64
347 1 5.7237548578642041e+00 1.0928503991136820e+01 5.7450859554601563e-01 -125 0 -5
341 1 2.2772953614047282e+01 5.4424598335144969e+00 6.6624509369232223e+00 42 -39 74
445 1 2.3405842261375933e+00 8.8884224218437051e+00 2.1577229578832022e+00 119 75 5
150 1 2.4513150231785456e+01 5.0903751853711681e+00 8.6310278195287393e-01 79 -26 72
158 1 2.1154265063707864e+01 7.4464660862961090e+00 1.0094507376508468e+00 -65 55 -86
202 1 2.5041773553704747e+00 5.1846985510512864e+00 4.0315238561634761e+00 28 92 -20
79 1 1.2149199163509191e+01 5.2703060849501151e+00 6.3032702754873942e+00 -1 -98 102
23 1 1.5751824482855445e+01 1.1414432781902377e+01 1.6082832012070247e+00 56 41 8
291 1 1.6396223821677147e+01 1.0627114582698884e+01 4.1690093315928456e+00 36 106 77
278 1 1.6583497014362038e+01 5.5300363819502447e+00 3.8848333342250272e+00 -89 -103 50
438 1 2.8426073718322447e+00 2.3585751890995108e+00 6.0145983290463665e+00 27 -18 -49
406 1 6.2271711911830625e+00 5.9642838904931654e+00 6.6016417729915764e+00 42 140 9
243 1 7.6055841881651398e+00 8.4407626947471019e+00 3.6187222706940338e+00 15 -35 -16
84 1 9.6913959080919625e+00 9.2066243379631736e+00 1.6472309332264021e+00 38 59 25
176 1 1.6514103004900324e+01 5.6492363470828417e+00 9.3276017712111314e-01 -97 -93 -29
259 1 2.1096624053267671e+01 1.0708124222910481e+01 3.9587585806751076e+00 3 49 31
491 1 9.6319547796005391e+00 4.9144756363789099e+00 5.7406557293909959e+00 -38 -26 -16
301 1 2.2160094855666326e+01 8.0533311225116702e+00 3.6568694491567380e+00 116 30 29
369 1 1.3841811735066155e+01 6.0260392710223503e+00 4.1436304381583922e+00 3 59 5
429 1 2.3069625792762452e+01 1.2213694120194956e+01 2.7450340501434383e+00 -23 -40 41
189 1 2.2668029329805595e+01 9.7471855413616186e+00 6.1995115226037711e+00 111 -50 -38
453 1 8.5232155418094990e+00 1.0792167534428432e+00 5.7511793051020996e+00 64 -2 3
321 1 1.8619339169124800e+01 3.6873887661864035e+00 1.7171118142280197e+00 40 31 -85
14 1 3.7815654940193055e+00 9.7216342567111020e+00 6.3677942834711780e+00 52 -28 35
373 1 1.3892245292661881e+01 6.9410992675204346e+00 1.4040463027660268e+00 51 36 -37
483 1 1.6344263040291185e+01 1.2244983080715683e+01 8.2263545139336784e+00 39 64 18
262 1 2.4599719171400793e+01 6.8978390647831134e+00 5.6616944264140363e+00 5 51 -43
457 1 6.2922726896751096e+00 8.7349823261140767e+00 6.0546400628492112e+00 -18 -40 73
146 1 1.8768247820196422e+01 1.5258626976478762e+00 4.0465661713369983e+00 -4 -17 7
308 1 9.2876990595228683e+00 2.8463822174230118e+00 7.7263687691460587e+00 51 103 71
485 1 1.9171882755236524e+01 9.3374012491632410e+00 5.6854600962840818e-01 -13 -1 81
336 1 1.6357859410202622e+01 2.8436944161280611e+00 5.0459865461990123e+00 38 -15 -121
141 1 1.7835957475374411e+01 7.2401012155512561e+00 5.6201621958968371e+00 93 74 -13
215 1 4.6572728985309588e+00 1.1789515067833070e+01 7.8168065859329108e+00 0 -140 -46
151 1 2.2309503320684904e+01 2.9299515346460141e+00 5.4074951795940498e+00 -39 -36 -12
325 1 7.1085985982276050e+00 3.9092382070566649e+00 2.5573883169823128e+00 -81 36 31
37 1 9.5529791145189229e+00 2.6171624403894467e+00 1.4630636814546265e+00 43 25 -42
455 1 5.3899595046004993e+00 1.9902317853060651e+00 6.4490758798078085e+00 55 103 26
430 1 1.1339531166682306e+01 5.6446841944542490e+00 2.3202592663713029e+00 57 55 5
366 1 2.0675855848043661e+00 5.0610101704180339e+00 6.7243823934760458e+00 159 -4 -46
4 1 2.2014359980285374e+01 1.7990832196245654e+00 7.2560613110239713e-01 25 -74 14
29 1 2.4567962881205247e+01 4.1566609219817924e-01 7.9993190179485607e-01 61 -46 -28
421 1 1.6822573462127377e+01 9.6904040093964934e+00 7.0762058800288390e+00 17 -1 76
288 1 1.1169909934843995e+01 1.1897757537076981e+01 4.8926788388210865e+00 -68 -31 -80
206 1 5.2376915523541534e+00 5.6939471454582176e+00 3.7269251307462188e+00 19 -86 29
232 1 1.2197059821866507e+01 8.2275571484867580e+00 7.2539406888563152e+00 92 41 29
68 1 2.3830244963531836e+01 2.7428089311498072e+00 2.8396292092315192e+00 0 -21 9
45 1 1.1688827325518689e+01 1.0484826590601124e+01 2.6283621853841663e+00 4 82 -77
142 1 1.4245093099379252e+01 2.1775512483282427e+00 1.6300463598625616e+00 22 17 57
274 1 1.9761708814720098e+01 1.0315145652334694e+01 7.4171325745538583e+00 -50 33 5
327 1 1.9408660884544140e+01 8.1832331451262219e-01 1.6602643521449099e+00 84 -5 -1
75 1 1.5723202747670543e+01 4.8353294101427624e-01 3.2152177307233759e-01 8 37 2
249 1 2.0146849998214694e+01 4.2865586560599436e+00 3.9821950238995103e+00 -71 -45 -30
126 1 8.3804479053808549e+00 1.1081646873667532e+01 4.5725336203315958e+00 -30 -37 -35
437 1 6.5972907944523449e+00 1.6126478897873751e+00 3.9101804823571400e+00 13 8 -117
90 1 1.9688602088761211e+00 7.7217231112854847e+00 7.7492418098098561e+00 -48 -51 -69
2 1 2.2926628639187811e+01 2.0442096741971594e+00 8.0313107314762764e+00 -47 4 -12
431 1 8.5460187738755933e-01 1.0207201574173114e+01 6.4352378599869864e+00 -62 -33 -25
86 1 1.2277998841446141e+00 1.1902266666191256e+01 4.3093932814602596e+00 -41 -59 84
314 1 2.1929784082132940e+01 1.0334415382795308e+01 1.0283621581550704e+00 -14 22 -7
443 1 5.5303003095619916e+00 7.5745433421127215e+00 1.7422389062221937e+00 -103 27 -7
213 1 3.8122001226605891e+00 1.0370115374084575e+01 3.6995030211186020e+00 -48 -13 12
344 1 1.4078129663747662e+01 9.2392714862621208e+00 2.6550313507824916e+00 37 -47 6
319 1 1.7681043465738735e+01 2.7093092960779281e+00 7.5294706077236686e+00 -37 -2 49
183 1 1.8651012523206980e+01 1.1040967138935674e+01 2.4711596209470463e+00 35 93 19
196 1 8.9041811573919549e+00 5.9351937019541037e+00 3.3459295034847107e+00 10 20 13
479 1 6.7383584953264952e+00 3.6667002951391745e+00 8.0005135192055725e+00 -24 -16 -47
247 1 2.6683475491272093e+00 1.0890726842891265e+00 5.1955578833348659e-01 18 -18 8
181 1 2.1050713634005231e+01 7.7152032920515854e+00 7.6247195625608537e+00 81 68 -52
348 1 2.3639829780733546e+01 4.2902975709132329e-01 4.8540471598290678e+00 -8 -14 19
331 1 1.3131890499165848e+01 1.2416398234592927e+01 8.9015400287828350e-01 41 11 -7
66 1 1.7322749978139726e+01 5.5344457452678837e+00 7.7569876260410027e+00 -20 37 -30
248 1 2.0028894574396968e+01 1.1511478660891277e+00 7.8844173311588923e+00 -38 32 -1
80 1 4.2179191812975123e+00 3.5093446784347165e-01 3.0844249045428751e+00 27 51 2
388 1 1.1062415330477355e+01 2.5916595946016469e-01 4.8578786490925498e+00 69 -4 32
422 1 1.0050890297962090e+00 3.8326729533600123e-01 6.8205989908473450e+00 -7 73 68
499 1 1.3342256724801725e+01 3.7850029450768816e+00 8.2882444269078519e+00 39 -24 -61
111 1 5.3783527916962433e+00 3.9009700879109857e+00 3.6198202818084213e-01 6 44 91
355 1 4.0660768614438769e+00 1.3762064853699552e+00 1.0567786834773951e+01 -30 -5 67
144 1 4.5788591132349730e+00 6.6903644940278211e+00 8.8400935864948273e+00 -19 35 46
218 1 1.7393456687490602e+01 2.0845071441082688e+00 1.4756957337398555e+01 -54 -8 -32
380 1 7.5915656048125539e+00 9.6727415245569421e+00 8.5759985978518785e+00 -8 80 62
273 1 1.1780208071731305e+01 4.7444466117492201e+00 1.3943958873970898e+01 77 177 120
488 1 1.2865127307208436e+01 3.8850653913259561e+00 1.6387334883277560e+01 -18 -13 26
458 1 1.9817896639908220e+01 1.0823425604829270e+01 1.2521106796338000e+01 -39 46 5
448 1 9.4650853907077881e+00 3.1533529873988386e+00 1.3758119711542649e+01 10 -40 -12
272 1 3.1047519054354251e+00 1.0962340883149400e+01 1.1108197573082670e+01 -15 -7 103
120 1 1.2589789661470970e+01 9.3017545475607211e+00 9.9518842126832805e+00 -6 -72 72
16 1 6.1982792353520599e-01 8.4977406878667274e+00 9.9513285260284121e+00 145 96 4
478 1 7.0629420736601052e+00 6.0261876387885973e+00 1.1063156618280711e+01 30 -4 38
266 1 1.8894850252207231e+01 5.6949935018804831e+00 1.1712612966140835e+01 29 -59 13
310 1 3.0379086943697620e+00 4.0986320136158323e+00 1.4024813095073826e+01 -11 -8 7
279 1 6.8285788699964645e+00 9.7510102273017694e+00 1.5482597859571898e+01 -39 153 52
199 1 1.9724362018833613e+01 5.6011526527248146e+00 8.9839152056888789e+00 20 74 -24
22 1 1.2773067492337018e+01 1.0396865446971377e+01 1.5069397563755027e+01 -1 -68 74
408 1 1.7438205240192577e+01 1.1954710632620291e+01 1.3491736295535528e+01 -139 33 57
280 1 2.1095762028816619e+01 1.0050849994243677e+01 1.0046230194374704e+01 18 -43 153
434 1 1.4040471804584515e+01 2.8577600143634836e+00 1.2411649583766883e+01 45 -27 -81
170 1 9.1018036671834235e+00 9.3381164637018852e+00 1.2303832221042175e+01 8 40 -20
324 1 4.8332775511964226e+00 4.1569058453140730e+00 1.0273802735541640e+01 10 -52 82
122 1 1.5183147779693915e+01 5.6862698158285161e+00 9.4138870672639037e+00 9 6 10
178 1 2.1111383494600961e+01 3.3717097823147641e+00 9.9657650662208788e+00 68 36 -61
444 1 6.3793146600692427e+00 1.7252274725484116e+00 1.4235230040769318e+01 1 -27 14
362 1 5.7800391347136939e+00 8.5566478852547387e+00 1.0622760698753218e+01 -55 -15 -59
63 1 1.2273252666052787e+00 1.1162789921774149e+01 9.2793091337456115e+00 6 -2 -101
168 1 8.0954621767717754e+00 1.1478548083021112e+01 1.3594812278288458e+01 100 -48 -56
260 1 1.5245181427968834e+01 3.8727740587488495e+00 1.4683745337749954e+01 -27 3 58
466 1 4.2326820919776518e+00 1.0273348909474773e+01 1.4722500252964208e+01 112 -34 -26
116 1 2.4082030248570831e+01 7.5668365072513968e+00 1.4412930589129736e+01 -50 -1 -3
300 1 1.6935138828708066e+01 7.6292301566990188e+00 1.2128967384346184e+01 -87 66 30
334 1 2.0945449756675824e+01 5.2954104665971196e+00 1.3771996690902906e+01 43 73 14
296 1 1.6285981998898322e+01 1.0298430088493609e+01 1.1227089919610329e+01 -39 -101 60
166 1 2.2447340420999723e+01 9.8661184592876197e+00 1.5653144740384700e+01 39 -12 -21
7 1 2.3154719644291571e+01 1.0037008121304240e+01 1.1804653952025900e+01 50 5 54
379 1 1.7368337472392981e+00 9.0277123113000197e+00 1.4794920309120450e+01 140 -8 59
107 1 9.3521613317857568e+00 5.9122005343995303e+00 9.6798954421418735e+00 -34 58 -138
306 1 2.3346034794822582e+01 6.3989427154239200e+00 9.2601672684578649e+00 -12 64 -63
378 1 1.2177437001829263e+01 8.9610163064101123e-01 1.1217962207988890e+01 13 -17 -65
282 1 3.9929806352812931e+00 2.1844568223851812e+00 1.5972660669277658e+01 36 27 73
33 1 3.2424449083393339e+00 8.4557889101943520e+00 1.2344984967513120e+01 -100 -35 -19
132 1 2.0714656076915052e+01 1.7592719478421170e+00 1.3408551140936222e+01 -53 -2 -70
43 1 1.9318786197085871e+01 1.3526280471121295e+00 1.0912344231755913e+01 -10 -7 14
395 1 2.2550482036983350e+01 5.8005700719301467e+00 1.6200299469009188e+01 -35 41 -50
330 1 5.8832089806200329e+00 1.1454873374794042e+01 1.0305867601676196e+01 -13 30 35
105 1 1.4969458565227480e+01 6.4700233058282342e+00 1.3568455499213403e+01 7 84 12
191 1 1.9956607654714906e+00 4.4641066343708973e+00 1.0848462024683013e+01 44 -15 -15
316 1 1.0929165946933283e+01 3.4278596466853206e+00 9.9615708105267107e+00 39 118 66
236 1 1.7740472667653044e+01 3.1089280433789015e+00 1.2122848277288986e+01 39 84 62
192 1 1.8760190330296727e+01 1.1119789768846914e+01 1.5880215103078156e+01 -81 64 -53
204 1 1.2964436768342837e+01 5.2019941110962993e+00 1.1398328690956387e+01 20 -26 -180
96 1 1.0522124741070865e+01 1.2203792788605497e+01 1.5339501735464472e+01 230 43 67
241 1 1.8447370311575401e+01 1.1485619402217816e+01 9.9908215414358192e+00 4 -113 -29
492 1 2.3557923419294095e+01 2.6158101175689743e+00 1.3317035915951580e+01 -1 -15 47
34 1 2.1356367309094864e+01 8.4793669740790651e+00 1.3341894517568569e+01 -122 -19 126
11 1 1.9710760987699860e+01 3.4651724720793231e+00 1.5204239657652536e+01 13 80 -48
470 1 7.1527280600464511e+00 6.1976875845005983e+00 1.3700413831921404e+01 26 -36 -136
509 1 3.5065835182009175e-01 4.5823556053521370e+00 1.5039411210930721e+01 117 52 -77
226 1 8.6989941796764754e+00 8.1643926326894523e+00 1.4567147176118985e+01 2 7 -1
53 1 1.2578217242969041e+01 7.4717018549740786e+00 1.4689643317921782e+01 57 104 143
294 1 4.4686520557406544e+00 6.5414869011202876e+00 1.4023004035134427e+01 34 37 -75
508 1 1.9536233062553386e+01 6.7686008782754596e+00 1.6029185959431580e+01 13 14 -70
289 1 1.3721971367585576e+01 1.0269051229709852e+01 1.2388999568533210e+01 -18 -10 -53
337 1 1.5140854856162356e+01 8.4145185325852907e+00 9.2742835566194515e+00 28 8 -40
427 1 2.4127930649110283e+01 1.1534637824758638e+01 1.4126106255903437e+01 124 -18 27
454 1 1.3696494442679207e+01 1.1807047746609062e+01 9.2333937648699891e+00 -49 53 17
381 1 2.1052633330724991e+01 7.2721115752474086e+00 1.0965289456087442e+01 24 -108 40
481 1 8.6602880285633366e-01 6.6805711060478803e+00 1.2008816950336351e+01 42 -12 -18
54 1 2.2819812070917518e+01 4.9576953903301417e+00 1.1677755347126546e+01 -3 15 48
464 1 1.8656950703346265e+01 8.6384854853865161e+00 1.4310598134213478e+01 12 22 -27
127 1 1.5879870884985792e+00 2.1287553385805937e+00 1.2203841035488795e+01 50 66 79
157 1 1.0922690161915202e+01 7.2217936488397232e+00 1.1254297756146464e+01 -3 -17 60
94 1 1.6648388832749426e+01 6.2949194059822124e+00 1.5814583966122006e+01 -63 36 48
143 1 9.9581203090908748e+00 1.0379182168157197e+01 9.9417011744267665e+00 32 1 -8
85 1 1.2784528118392722e+00 1.1371303417239856e+01 1.6410440008140110e+01 20 37 -96
210 1 7.1789843451866577e+00 3.1243798484974601e+00 1.2021079608033942e+01 -7 1 39
352 1 1.5898776986557488e+01 2.7136512796653172e+00 9.8786269499626780e+00 39 -43 -65
410 1 9.3177447731897161e+00 1.3382870077011000e+00 1.1178840940851504e+01 24 132 7
32 1 1.3268910822369705e+01 6.3612458521209536e-01 1.3937987890563598e+01 -58 106 -46
456 1 2.3023920140413743e+01 1.2340220679156486e+01 1.0027959029105903e+01 -27 -40 13
135 1 8.6670284528477755e+00 4.6230815121889304e+00 1.5809372713590440e+01 -2 55 -65
361 1 1.4403418653133201e+01 3.8451017141673083e-01 9.2507297606733214e+00 -60 112 -12
463 1 9.4919078937316019e+00 1.1791471480627413e+00 1.5841371009909318e+01 -47 30 -40
439 1 1.5269730925002911e-01 4.0565915914895134e+00 8.6110086455866011e+00 26 -38 -74
175 1 6.8891372877088157e+00 2.8710881353829967e+00 1.6869466550606763e+01 38 -3 -23
476 1 2.0759983711695234e+01 9.1622744369233633e+00 2.1087958876374174e+01 -33 -15 -59
303 1 2.5162890807142095e+00 1.1266017311842937e+01 2.3439641571677370e+01 27 -2 199
420 1 2.3897995598911088e+01 1.2289400675513505e+01 2.1812269683261000e+01 35 -31 121
375 1 6.5306972652839805e+00 1.0296993164566350e+01 1.8314985937315058e+01 11 53 -120
123 1 1.9692523650281921e+00 1.1161109351826422e+01 1.9530909010810650e+01 -72 -8 3
311 1 1.1504159545267010e+01 3.7514091128263809e+00 2.1553235513955276e+01 7 -53 21
467 1 2.0089948226567774e+01 1.1254139356406149e+01 2.3208285803129357e+01 -63 99 49
220 1 1.8754591379561816e+01 6.5645670186492149e+00 2.4128628423959132e+01 53 1 3
269 1 2.0090492874629469e+01 7.6653038088509131e+00 1.8656731397841622e+01 24 -40 5
173 1 1.7711807632862776e+01 2.3589168296798935e+00 2.3944324952483303e+01 38 59 -3
504 1 3.5284118176540322e+00 7.0720138364748450e+00 2.2176027302127437e+01 -37 -23 48
346 1 1.1842894393436271e+01 5.9974475645926235e+00 1.9835785611686230e+01 44 33 -114
451 1 1.5232944956743683e+01 4.5640206854499796e+00 2.1543596575307408e+01 68 34 -24
225 1 1.7899985438811264e+01 8.9544580043008590e+00 1.7820648745713381e+01 23 81 12
109 1 5.8671232331436656e+00 5.6305269888554870e+00 2.1115236614633634e+01 -81 -37 -50
391 1 1.3601372761581144e+01 9.3376527252784012e+00 1.9764753675797248e+01 -86 -30 -6
137 1 4.5581332274158841e+00 6.7623327383757319e+00 1.6636120658701785e+01 -7 -25 59
342 1 2.1579558683715643e+01 1.1528962566190595e+01 2.0311228351477499e+01 31 -9 10
433 1 1.7368264089797144e+01 7.1723560058202773e-01 2.1700520133792505e+01 12 -51 -40
172 1 8.3633533086055731e+00 1.0703790317498015e+01 2.4288562477052292e+01 -24 -106 40
292 1 2.2220511475298746e+01 2.2583260199549975e+00 2.2675076854772637e+01 -16 22 59
506 1 7.1908756202817168e+00 1.6316883566563181e+00 2.4212644170525888e+01 -16 -21 0
3 1 2.0551912107562371e+00 7.9775602351545585e+00 1.7382678835065722e+01 11 53 24
88 1 9.9026928283867903e+00 1.0589555133885236e+01 2.1832901385239975e+01 -22 17 56
46 1 5.0012362880131604e+00 1.8422138715618810e+00 1.8774901703367462e+01 36 -11 61
216 1 2.1861212046729804e+01 6.5252404080729400e+00 2.1716568101939139e+01 -30 -9 162
490 1 1.4116120833324873e+01 1.1283960074593820e+01 1.7340436010100781e+01 12 -95 0
263 1 7.2694423830007580e+00 1.1430344444251080e+01 2.0814602016551412e+01 32 141 4
139 1 2.0093797445848306e+01 1.1653520885647786e+00 2.1486009180990301e+01 -14 -5 -23
174 1 2.2767701194070547e+01 3.6818313493462269e+00 2.0122592695763696e+01 9 98 -26
384 1 9.6260891975401641e+00 6.4108834568048714e+00 2.1658510423074343e+01 5 13 7
354 1 1.6480962310357079e+01 7.1569719061208890e+00 1.9715096575518377e+01 2 52 18
335 1 3.5655523358292625e+00 2.9401121771225305e+00 2.3102059347075585e+01 17 -21 89
486 1 2.4449831398108941e+01 4.1498080109207897e-01 2.2458996540208108e+01 47 16 -12
103 1 1.8886305613753475e+01 5.0901959338176477e+00 1.9287598434325368e+01 -23 39 -49
205 1 1.0516003351038620e+01 7.8636547871375573e+00 1.6565307631202472e+01 -33 -12 -59
64 1 8.3145196339374685e+00 5.1462137461467048e+00 1.9323935986812117e+01 -29 67 16
233 1 8.6704830335591243e+00 1.2085418043536155e+01 1.7548161294874514e+01 -10 -31 -31
240 1 1.1898263399196201e+01 1.4966559830957586e+00 1.7499988230480135e+01 -224 132 58
452 1 3.9878594824712916e+00 1.0606709083612907e+01 1.7641678715506693e+01 8 -2 84
9 1 2.4432227400894593e+01 5.9675022180044870e+00 2.0464371547675995e+01 -34 37 12
246 1 1.9461248555797586e+00 4.0361472380906989e+00 1.7530004602742284e+01 80 66 101
87 1 2.3986628072020082e+01 7.0007260468672614e+00 1.8163733742043235e+01 -9 38 81
505 1 1.8260834241989873e+01 4.3857146491486114e+00 2.2093780159200506e+01 -5 28 -48
264 1 1.4237587297947116e+00 5.1874707891844487e+00 2.2967752483565768e+01 -106 32 41
108 1 1.9370745616211591e+00 1.6140751055227733e+00 2.1124903895102584e+01 42 -38 32
61 1 1.7875972143459389e+00 8.4455769560205614e+00 2.0292738954780678e+01 86 -58 99
320 1 7.8679635264067969e+00 8.5698716777950672e+00 2.2099534281434341e+01 25 88 41
281 1 1.7498518996562357e+01 1.1312962711590712e+01 1.9302725855555973e+01 34 -34 108
415 1 1.4610794000334591e+01 1.1486576401646481e+01 2.1205220059369204e+01 -56 -40 20
104 1 1.9884773754955688e+01 1.8538806942107946e+00 1.8812714881862728e+01 83 28 -19
510 1 7.2826217916846199e+00 7.6602868918861242e+00 1.9448872034614787e+01 -64 137 35
426 1 1.2634556661408737e+01 1.1115747140609642e+01 2.3037016587995414e+01 86 -3 66
432 1 1.8213748803612251e+01 8.2315796320788124e+00 2.1796392586412683e+01 37 -59 7
219 1 4.1996234721552195e-01 9.7593618004074099e+00 2.2753216338573846e+01 -23 -17 -108
423 1 1.0918644828223535e+01 8.9962122943789584e+00 1.9831634928081684e+01 -13 5 59
169 1 5.7087366201357863e+00 2.7375559990997593e+00 2.1599686980901357e+01 -6 36 3
276 1 8.5384356482841177e+00 3.1401887954810110e+00 2.1131767724501135e+01 30 166 -24
6 1 1.2338499128932835e+01 1.2473664552708272e+00 2.0227863479797463e+01 86 19 -32
203 1 1.7271605894213071e+01 1.5276006316696908e+00 1.7387180847874525e+01 113 -112 77
360 1 6.5776211587679034e+00 6.4393479387337500e+00 2.3861194643305787e+01 -91 -39 74
227 1 1.4837328705638475e+01 5.5230640655324974e+00 1.7761561975634116e+01 132 102 -3
117 1 2.4685213353629337e+01 2.4868523135245901e+00 1.8912645745345479e+01 45 48 89
73 1 2.0785280499150936e+01 4.5740792180077516e+00 2.3358524206886333e+01 -51 8 19
267 1 1.5211800077647304e+01 1.5614291779141207e+00 2.0321936473183950e+01 -95 67 -63
125 1 1.4030522532805881e+01 7.0715903458514049e+00 2.1129793232814674e+01 -44 -42 -11
372 1 2.2356858003165268e+01 9.1665231397957783e+00 1.8348689392381509e+01 18 0 11
156 1 1.0687945198333693e+01 5.4967572065720525e+00 1.7546202565911241e+01 41 28 -14
332 1 2.1169096408091654e+01 4.0017835876880987e+00 1.7710924503505005e+01 16 -19 -97
81 1 4.5115556942056436e+00 4.6342289113105366e+00 1.8728742785721806e+01 45 91 -21
343 1 1.6528707398963473e+01 3.7666719987058053e+00 1.8784936102063003e+01 -69 13 148
237 1 1.3151151214805576e+01 8.4817141035935286e+00 2.3658495241331234e+01 16 -37 -21
140 1 1.7478204477672204e+01 1.1012759828453540e+01 2.2029138318217562e+01 -66 27 -10
407 1 2.3331629151495516e+01 7.3595031022674053e+00 2.3970750872997577e+01 14 4 62
318 1 8.6240180230741839e+00 4.2000417808907837e+00 2.3476497139682245e+01 40 2 152
208 1 1.1497967065522566e+01 4.0913793189411134e+00 2.4258910019261226e+01 24 86 -13
93 1 1.0616950349029374e+01 7.1532779338197772e+00 2.4120444191661150e+01 -34 -15 19
503 1 1.1337689539020424e+01 1.0434478067633076e+01 1.7508902538050894e+01 -17 -4 28
313 1 1.5258885419487443e+01 8.5470537317648159e+00 1.7342869481630849e+01 -44 35 32
270 1 2.3954522293221427e+01 1.2140401254616943e+01 1.8501546254303697e+01 24 127 106
382 1 7.6055919830355236e+00 3.6865630780422121e-01 1.7999505958555549e+01 41 -11 51
493 1 4.0649892363191586e+00 8.8348973527893886e+00 2.4313532271424307e+01 -40 89 48
442 1 1.4295463358698047e+01 4.4298167020810801e+00 2.4285913191754933e+01 16 -12 -106
387 1 8.5511024053900773e+00 4.0523740591408658e-01 2.0496873477343726e+01 71 -23 122
164 1 5.3581147666632836e+00 1.2197587325019818e+01 2.2686502273809509e+01 60 22 141
133 1 1.1316109249927878e+01 1.0682966824399742e+00 2.4296200438786265e+01 -36 70 -46
295 1 1.8978694240258800e+01 2.3637416880682807e+01 5.7873146470951546e+00 -45 -9 -11
51 1 2.3163383690718494e+01 2.0800479522699995e+01 3.8149572923073167e+00 45 -8 -38
186 1 3.5588575736937744e+00 1.3882033949106306e+01 4.7508700454440111e+00 -29 171 38
255 1 2.4091546882108993e+01 1.3798425416303685e+01 5.9960568806626062e+00 -128 9 81
365 1 2.0256415603021384e+01 1.4212267779817587e+01 6.1656630080959118e+00 -11 72 -37
167 1 6.0909700272208331e+00 1.8321012319690404e+01 7.6310158169353164e+00 28 -24 4
223 1 2.5279922264960408e+00 1.3180160448508159e+01 9.5143787260697699e-01 104 36 9
72 1 8.1143441904446618e+00 2.3030972259699411e+01 6.3660914313922552e+00 29 55 46
40 1 1.3374017513911527e+00 2.0111664258463499e+01 3.2678016836000814e+00 -3 40 59
484 1 2.0591511839420527e+01 1.8710595567909248e+01 6.3803590227324056e+00 -41 -22 91
55 1 1.2482369493665177e+01 1.8813833885550700e+01 5.5947022409167237e+00 35 70 -21
377 1 1.5271715948052522e+01 1.2689371839506318e+01 5.8299444855840239e+00 20 6 -103
24 1 1.8992326479917168e+00 1.5875280426223673e+01 3.4751399255808297e+00 26 -55 68
155 1 7.5827305790075057e+00 1.6863559523694807e+01 1.0022277646274258e+00 -53 33 27
376 1 1.6310773667459571e+01 1.4502047538379806e+01 3.7045656106746563e+00 -82 -6 -13
119 1 5.6192728558635077e+00 1.7837252977001455e+01 4.7984668363713254e+00 47 73 98
13 1 1.8582627140775131e+01 1.3698279918478878e+01 2.4535064951690839e+00 137 -9 71
49 1 2.1386265953154595e+01 2.3216561375405327e+01 4.3230041879019865e+00 -12 30 -23
312 1 7.9072435070431029e+00 2.1333915989338710e+01 3.8356898415413956e+00 -6 11 14
165 1 1.3055339741589012e+01 2.3984119695350707e+01 6.9747315834724972e+00 91 -20 100
238 1 5.8519685029785800e+00 2.1051477352647389e+01 8.5638485163525224e-01 56 12 -19
368 1 1.7336857534433676e+01 2.1391550094343671e+01 5.6405879098810949e+00 47 -36 39
52 1 5.0004974408158533e+00 2.0726094240762542e+01 3.4089920276396435e+00 102 -90 136
201 1 1.5161145170485783e+01 2.2114484153078216e+01 7.4244085279458956e+00 -97 -50 35
25 1 1.7331191298361386e+01 1.4646776071930194e+01 6.7609253153027673e+00 58 -81 -52
76 1 2.8846107988361269e+00 2.2438617459197751e+01 4.3072790760064370e+00 21 29 12
89 1 7.4536723374852443e+00 1.3075172941492877e+01 3.1779463993184578e+00 -14 13 -181
425 1 9.0380623772873729e+00 2.4231433419774273e+01 8.1007554494411305e-01 67 33 -9
5 1 2.1982655773835933e+01 1.6939482244082264e+01 3.5244368374519919e+00 45 41 1
190 1 1.4005746720334651e+01 2.2000228283070062e+01 2.6245210233206340e+00 98 84 25
162 1 2.6927914710032250e+00 1.7367830709379511e+01 1.2175074280815197e+00 -41 7 4
222 1 2.1345651511523457e+01 1.6750524309395317e+01 6.3212243250946187e-01 19 54 51
511 1 3.3731462457325712e-01 2.2231423351281709e+01 1.7187450866854526e-01 49 5 102
99 1 5.2918051156079642e+00 1.8194116047140724e+01 1.9927474022565996e+00 -3 -9 42
363 1 1.6257909863039241e-01 1.4176426626215923e+01 1.9491197302908105e+00 -16 -39 20
118 1 1.0124120025790919e+01 1.3622680252064157e+01 6.6625516330221179e+00 -25 132 -80
224 1 6.9024627101280611e+00 2.3612403274958560e+01 2.3047599005516406e+00 62 -97 8
163 1 1.6200183463989998e+01 1.7290457493835952e+01 6.5130597143739664e+00 -46 -61 9
383 1 1.5375627507357148e+01 1.4243984863299023e+01 1.0951257621023409e+00 -45 92 -24
475 1 2.1079535904218456e+01 1.4209386800570499e+01 3.6598461640206970e+00 15 -9 -17
446 1 2.2838891040526033e+00 1.3141341514641628e+01 7.4054403284457830e+00 24 31 -12
413 1 3.8699178745934104e-01 2.2935462545444814e+01 3.1409115853208096e+00 -18 7 -24
36 1 1.7641086314788911e+01 1.8901677688905036e+01 2.4590873594696490e+00 112 66 119
8 1 2.0778813343536761e+01 1.6424753948365591e+01 7.7109522685666763e+00 -23 24 -27
65 1 1.0338279370069596e+01 2.2739222569583774e+01 2.7477818562078613e+00 -33 73 -10
465 1 1.4508433793014468e+01 1.9661547832713971e+01 7.4212329196586957e+00 29 29 43
403 1 1.8082285893978291e+01 1.9113989702021279e+01 6.8830558583222352e+00 -71 46 9
254 1 2.0951384334678377e+01 2.1282577448115902e+01 2.1638677673179885e+00 40 89 41
1 1 1.2943388286525726e+01 1.4170257216257767e+01 4.9645540306956475e+00 -50 -43 60
56 1 2.7924918249028243e+00 1.8307397466953418e+01 4.8333977082919315e+00 -17 77 25
447 1 9.5835918791880346e+00 1.5974168609174502e+01 5.8276425067563915e+00 -4 -118 23
401 1 8.8736473356814258e+00 1.7854757329037614e+01 7.6010690262329463e+00 34 12 20
147 1 1.3610924930690519e+01 1.6183989930814072e+01 6.6182778710651471e+00 -27 27 94
182 1 7.2134437070582269e+00 1.5499164579542015e+01 4.4049903669858983e+00 112 53 39
130 1 1.7687006166905466e+01 2.3064774927017115e+01 1.1893344860439419e+00 -16 -34 11
328 1 2.2815531979549910e+01 2.0133746954596244e+01 6.5795260426941553e+00 70 77 -15
229 1 2.2197648113384830e+01 2.2677887995879836e+01 7.2548620655086395e+00 46 30 17
498 1 1.5858780401331638e+01 1.7296947576910874e+01 3.7326221058869087e+00 36 17 3
411 1 1.2154417722929431e+01 1.5572268556869911e+01 2.8720698003634157e+00 23 112 153
428 1 5.8011851019691871e+00 1.4187315924699508e+01 6.3728032406153847e+00 64 -6 -4
450 1 8.7984221925549537e+00 1.3204506874752942e+01 6.8320402299997329e-01 125 -81 23
148 1 2.4209887645237924e+01 1.6272151549542517e+01 4.9151484794398863e+00 -47 51 69
179 1 9.5110758576382661e+00 1.6422186753033483e+01 2.9318610371058198e+00 -74 -72 -40
70 1 2.4264358903017797e+01 1.6982275806630359e+01 1.4733812104904829e+00 88 -7 12
256 1 1.1918587478920815e+01 2.0176993117212447e+01 1.8724232699702563e+00 38 22 -31
78 1 9.7081066198215158e+00 1.9982618569606569e+01 5.8026164678704841e+00 -14 -51 -29
495 1 1.3364762255486058e+01 1.8001674544150660e+01 3.1117772689297576e+00 -36 9 -61
338 1 2.0157118557849167e+01 1.8849569993620158e+01 3.4556313108440473e+00 -6 -2 36
402 1 1.2588061950599091e+01 2.4309802928194209e+01 1.7244606806729506e+00 37 55 -25
77 1 1.6715685707321192e+01 2.1452587387731175e+01 3.0475458794294163e+00 51 -28 11
145 1 9.5842731281942974e+00 1.9125084769769220e+01 2.7972867554130931e+00 24 -1 -48
416 1 2.6662567419350296e+00 2.2752805534842448e+01 7.2929344765349535e+00 -11 -36 29
359 1 1.2050092498118973e+01 2.1785965102338274e+01 5.0767876361192066e+00 -41 54 3
97 1 1.1226621986690422e+01 1.4301306426337021e+01 5.1066314046936834e-01 27 63 -8
115 1 1.4559784405136442e+00 1.9509568882226457e+01 4.6364367970995474e-01 77 -148 29
250 1 2.4420421573012245e+01 1.7870932751583577e+01 6.9780963052445060e+00 -10 10 167
136 1 1.0733793711640542e+01 2.2286685676997770e+01 7.3776955128060688e+00 36 -70 110
235 1 2.3437610651645615e+00 1.8412462408787356e+01 7.7104963806699942e+00 26 -57 152
399 1 2.2828325017277788e+01 1.9457335912924542e+01 7.3745417092619014e-01 18 63 -19
161 1 4.7992982385174017e+00 1.2772760479824077e+01 2.5947252029712611e+00 30 -33 39
487 1 4.7881291592782080e+00 2.3880980870177876e+01 3.5681282515392793e-01 26 39 -6
307 1 1.7320476201724340e+01 1.5029277817451737e+01 1.3392422062701051e+01 -50 103 -8
317 1 1.7571828624382739e+00 1.4712101999386560e+01 1.1764604869834990e+01 109 -32 -34
253 1 1.6253393717758641e+01 2.2921879415153853e+01 1.0511939506986357e+01 -1 7 -8
418 1 2.3564618974067937e+01 2.0728369900754842e+01 9.3293302120136570e+00 -76 -64 -18
471 1 1.4550394271850250e+01 1.6417850604846986e+01 1.0208827039702644e+01 -84 -21 29
502 1 9.5666448513341980e+00 2.1769634800898316e+01 1.2470091882344777e+01 -43 -30 -44