LAMMPS (4 Jan 2019)
# LAMMPS input script
boundary p p p
units       real
atom_style  atomic
atom_modify map array sort 0 0
read_data   data.in
  orthogonal box = (0.0191589 0.0191589 0.0191589) to (24.8158 24.8158 24.8158)
  1 by 2 by 3 MPI processor grid
  reading atoms ...
  512 atoms
  reading velocities ...
  512 velocities
pair_style  tersoff
pair_coeff  * * WT_ML-BOP.tersoff WT
Reading potential file WT_ML-BOP.tersoff with DATE: 2018-05-25

# ----- Variables -----
variable seed equal 96025
variable T equal 230.0000000000
variable P equal 986.923 # 1 bar

# ----- Initialize -----
neighbor 2.0 nsq
neigh_modify delay 0 every 1 check yes
timestep 5 # 5 fs   # Fix timestep here

# ----- Log file output -----
thermo       10000
thermo_style    custom  time temp press pe ke lx ly lz density vol
thermo_modify line multi norm yes flush yes format float %.6f

# ----- equilibruate --------
#velocity  all create ${T} ${seed}
fix 1 all npt temp ${T} ${T} 100 iso ${P} ${P} 1000
fix 1 all npt temp 230 ${T} 100 iso ${P} ${P} 1000
fix 1 all npt temp 230 230 100 iso ${P} ${P} 1000
fix 1 all npt temp 230 230 100 iso 986.923 ${P} 1000
fix 1 all npt temp 230 230 100 iso 986.923 986.923 1000
run 2000000 # 10 ns
Neighbor list info ...
  update every 1 steps, delay 0 steps, check yes
  max neighbors/atom: 2000, page size: 100000
  master list distance cutoff = 5.55327
  ghost atom cutoff = 5.55327
  1 neighbor lists, perpetual/occasional/extra = 1 0 0
  (1) pair tersoff, perpetual
      attributes: full, newton on
      pair build: full/nsq
      stencil: none
      bin: none
Per MPI rank memory allocation (min/avg/max) = 2.685 | 2.687 | 2.689 Mbytes
---------------- Step        0 ----- CPU =      0.0000 (sec) ----------------
Time     = 0.000000 Temp     = 294.450891 Press    = 562.722559 
PotEng   = -8.494318 KinEng   = 0.875988 Lx       = 24.796682 
Ly       = 24.796682 Lz       = 24.796682 Density  = 1.004569 
Volume   = 15246.871242 
---------------- Step    10000 ----- CPU =      6.2314 (sec) ----------------
Time     = 50000.000000 Temp     = 235.963676 Press    = 1074.170235 
PotEng   = -8.811766 KinEng   = 0.701989 Lx       = 24.392190 
Ly       = 24.392190 Lz       = 24.392190 Density  = 1.055378 
Volume   = 14512.839057 
---------------- Step    20000 ----- CPU =     12.4457 (sec) ----------------
Time     = 100000.000000 Temp     = 231.371216 Press    = 441.360398 
PotEng   = -8.852060 KinEng   = 0.688327 Lx       = 24.650321 
Ly       = 24.650321 Lz       = 24.650321 Density  = 1.022569 
Volume   = 14978.480245 
---------------- Step    30000 ----- CPU =     18.8316 (sec) ----------------
Time     = 150000.000000 Temp     = 232.652465 Press    = 483.523059 
PotEng   = -8.850681 KinEng   = 0.692138 Lx       = 24.512899 
Ly       = 24.512899 Lz       = 24.512899 Density  = 1.039864 
Volume   = 14729.364959 
---------------- Step    40000 ----- CPU =     25.0338 (sec) ----------------
Time     = 200000.000000 Temp     = 228.701903 Press    = 478.790656 
PotEng   = -8.850430 KinEng   = 0.680385 Lx       = 24.420625 
Ly       = 24.420625 Lz       = 24.420625 Density  = 1.051696 
Volume   = 14563.653636 
---------------- Step    50000 ----- CPU =     31.3072 (sec) ----------------
Time     = 250000.000000 Temp     = 223.752532 Press    = -367.912858 
PotEng   = -8.876145 KinEng   = 0.665661 Lx       = 24.475717 
Ly       = 24.475717 Lz       = 24.475717 Density  = 1.044610 
Volume   = 14662.440112 
---------------- Step    60000 ----- CPU =     37.3170 (sec) ----------------
Time     = 300000.000000 Temp     = 232.238053 Press    = -549.118023 
PotEng   = -8.833425 KinEng   = 0.690905 Lx       = 24.578789 
Ly       = 24.578789 Lz       = 24.578789 Density  = 1.031523 
Volume   = 14848.460971 
---------------- Step    70000 ----- CPU =     43.4603 (sec) ----------------
Time     = 350000.000000 Temp     = 233.120138 Press    = 1642.630587 
PotEng   = -8.825860 KinEng   = 0.693530 Lx       = 24.551297 
Ly       = 24.551297 Lz       = 24.551297 Density  = 1.034993 
Volume   = 14798.690780 
---------------- Step    80000 ----- CPU =     49.6358 (sec) ----------------
Time     = 400000.000000 Temp     = 241.043420 Press    = 1369.175929 
PotEng   = -8.866651 KinEng   = 0.717101 Lx       = 24.268216 
Ly       = 24.268216 Lz       = 24.268216 Density  = 1.071635 
Volume   = 14292.676253 
---------------- Step    90000 ----- CPU =     55.9305 (sec) ----------------
Time     = 450000.000000 Temp     = 228.473909 Press    = 517.644804 
PotEng   = -8.913402 KinEng   = 0.679707 Lx       = 24.404581 
Ly       = 24.404581 Lz       = 24.404581 Density  = 1.053772 
Volume   = 14534.967234 
---------------- Step   100000 ----- CPU =     62.2162 (sec) ----------------
Time     = 500000.000000 Temp     = 228.447556 Press    = 542.881255 
PotEng   = -8.897202 KinEng   = 0.679629 Lx       = 24.583873 
Ly       = 24.583873 Lz       = 24.583873 Density  = 1.030884 
Volume   = 14857.677460 
---------------- Step   110000 ----- CPU =     68.2384 (sec) ----------------
Time     = 550000.000000 Temp     = 222.274087 Press    = -72.766658 
PotEng   = -8.867905 KinEng   = 0.661263 Lx       = 24.483237 
Ly       = 24.483237 Lz       = 24.483237 Density  = 1.043648 
Volume   = 14675.960428 
---------------- Step   120000 ----- CPU =     74.3985 (sec) ----------------
Time     = 600000.000000 Temp     = 226.952826 Press    = 403.054256 
PotEng   = -8.884703 KinEng   = 0.675182 Lx       = 24.418179 
Ly       = 24.418179 Lz       = 24.418179 Density  = 1.052012 
Volume   = 14559.276949 
---------------- Step   130000 ----- CPU =     80.5494 (sec) ----------------
Time     = 650000.000000 Temp     = 220.989137 Press    = 796.923790 
PotEng   = -8.828177 KinEng   = 0.657440 Lx       = 24.568683 
Ly       = 24.568683 Lz       = 24.568683 Density  = 1.032797 
Volume   = 14830.153841 
---------------- Step   140000 ----- CPU =     86.7165 (sec) ----------------
Time     = 700000.000000 Temp     = 243.674617 Press    = 595.740555 
PotEng   = -8.789749 KinEng   = 0.724929 Lx       = 24.456136 
Ly       = 24.456136 Lz       = 24.456136 Density  = 1.047121 
Volume   = 14627.278928 
---------------- Step   150000 ----- CPU =     93.1472 (sec) ----------------
Time     = 750000.000000 Temp     = 233.330137 Press    = 849.161702 
PotEng   = -8.867686 KinEng   = 0.694154 Lx       = 24.467990 
Ly       = 24.467990 Lz       = 24.467990 Density  = 1.045600 
Volume   = 14648.558209 
---------------- Step   160000 ----- CPU =     99.5811 (sec) ----------------
Time     = 800000.000000 Temp     = 218.517127 Press    = 1035.135260 
PotEng   = -8.857870 KinEng   = 0.650086 Lx       = 24.408334 
Ly       = 24.408334 Lz       = 24.408334 Density  = 1.053285 
Volume   = 14541.674537 
---------------- Step   170000 ----- CPU =    105.6853 (sec) ----------------
Time     = 850000.000000 Temp     = 225.889729 Press    = 1402.237364 
PotEng   = -8.844723 KinEng   = 0.672019 Lx       = 24.406994 
Ly       = 24.406994 Lz       = 24.406994 Density  = 1.053459 
Volume   = 14539.279415 
---------------- Step   180000 ----- CPU =    111.8594 (sec) ----------------
Time     = 900000.000000 Temp     = 224.167776 Press    = 1392.682455 
PotEng   = -8.824919 KinEng   = 0.666896 Lx       = 24.477431 
Ly       = 24.477431 Lz       = 24.477431 Density  = 1.044391 
Volume   = 14665.521564 
---------------- Step   190000 ----- CPU =    117.9585 (sec) ----------------
Time     = 950000.000000 Temp     = 219.491130 Press    = -196.804513 
PotEng   = -8.823327 KinEng   = 0.652984 Lx       = 24.523039 
Ly       = 24.523039 Lz       = 24.523039 Density  = 1.038575 
Volume   = 14747.651366 
---------------- Step   200000 ----- CPU =    124.2504 (sec) ----------------
Time     = 1000000.000000 Temp     = 232.901318 Press    = 755.852872 
PotEng   = -8.801467 KinEng   = 0.692879 Lx       = 24.329946 
Ly       = 24.329946 Lz       = 24.329946 Density  = 1.063499 
Volume   = 14402.021346 
---------------- Step   210000 ----- CPU =    130.4066 (sec) ----------------
Time     = 1050000.000000 Temp     = 240.115901 Press    = 1527.717183 
PotEng   = -8.880324 KinEng   = 0.714342 Lx       = 24.536551 
Ly       = 24.536551 Lz       = 24.536551 Density  = 1.036860 
Volume   = 14772.042269 
---------------- Step   220000 ----- CPU =    136.7574 (sec) ----------------
Time     = 1100000.000000 Temp     = 218.148255 Press    = 1653.069119 
PotEng   = -8.814685 KinEng   = 0.648988 Lx       = 24.486166 
Ly       = 24.486166 Lz       = 24.486166 Density  = 1.043274 
Volume   = 14681.226619 
---------------- Step   230000 ----- CPU =    143.0729 (sec) ----------------
Time     = 1150000.000000 Temp     = 233.308528 Press    = 1104.690768 
PotEng   = -8.822725 KinEng   = 0.694090 Lx       = 24.505373 
Ly       = 24.505373 Lz       = 24.505373 Density  = 1.040822 
Volume   = 14715.803093 
---------------- Step   240000 ----- CPU =    149.2721 (sec) ----------------
Time     = 1200000.000000 Temp     = 228.570325 Press    = 1966.111541 
PotEng   = -8.881791 KinEng   = 0.679994 Lx       = 24.471337 
Ly       = 24.471337 Lz       = 24.471337 Density  = 1.045171 
Volume   = 14654.569661 
---------------- Step   250000 ----- CPU =    155.5867 (sec) ----------------
Time     = 1250000.000000 Temp     = 230.980391 Press    = 254.732094 
PotEng   = -8.864648 KinEng   = 0.687164 Lx       = 24.484289 
Ly       = 24.484289 Lz       = 24.484289 Density  = 1.043513 
Volume   = 14677.851717 
---------------- Step   260000 ----- CPU =    162.0568 (sec) ----------------
Time     = 1300000.000000 Temp     = 238.837495 Press    = 67.045231 
PotEng   = -8.814342 KinEng   = 0.710539 Lx       = 24.478440 
Ly       = 24.478440 Lz       = 24.478440 Density  = 1.044262 
Volume   = 14667.335608 
---------------- Step   270000 ----- CPU =    168.4214 (sec) ----------------
Time     = 1350000.000000 Temp     = 219.864943 Press    = 43.338859 
PotEng   = -8.873376 KinEng   = 0.654096 Lx       = 24.518114 
Ly       = 24.518114 Lz       = 24.518114 Density  = 1.039201 
Volume   = 14738.767363 
---------------- Step   280000 ----- CPU =    174.6528 (sec) ----------------
Time     = 1400000.000000 Temp     = 234.469625 Press    = 1016.387238 
PotEng   = -8.852134 KinEng   = 0.697544 Lx       = 24.516915 
Ly       = 24.516915 Lz       = 24.516915 Density  = 1.039353 
Volume   = 14736.605950 
---------------- Step   290000 ----- CPU =    180.7129 (sec) ----------------
Time     = 1450000.000000 Temp     = 232.034138 Press    = 699.524006 
PotEng   = -8.854928 KinEng   = 0.690299 Lx       = 24.456385 
Ly       = 24.456385 Lz       = 24.456385 Density  = 1.047089 
Volume   = 14627.724180 
---------------- Step   300000 ----- CPU =    186.8077 (sec) ----------------
Time     = 1500000.000000 Temp     = 225.243038 Press    = 354.160328 
PotEng   = -8.942960 KinEng   = 0.670095 Lx       = 24.658532 
Ly       = 24.658532 Lz       = 24.658532 Density  = 1.021548 
Volume   = 14993.453300 
---------------- Step   310000 ----- CPU =    192.9842 (sec) ----------------
Time     = 1550000.000000 Temp     = 234.583967 Press    = 735.514559 
PotEng   = -8.811215 KinEng   = 0.697885 Lx       = 24.361787 
Ly       = 24.361787 Lz       = 24.361787 Density  = 1.059334 
Volume   = 14458.639202 
---------------- Step   320000 ----- CPU =    199.2763 (sec) ----------------
Time     = 1600000.000000 Temp     = 225.911297 Press    = 166.438297 
PotEng   = -8.812274 KinEng   = 0.672083 Lx       = 24.593156 
Ly       = 24.593156 Lz       = 24.593156 Density  = 1.029717 
Volume   = 14874.513919 
---------------- Step   330000 ----- CPU =    205.6671 (sec) ----------------
Time     = 1650000.000000 Temp     = 230.619412 Press    = 1567.226183 
PotEng   = -8.869580 KinEng   = 0.686090 Lx       = 24.415960 
Ly       = 24.415960 Lz       = 24.415960 Density  = 1.052299 
Volume   = 14555.308476 
---------------- Step   340000 ----- CPU =    211.9380 (sec) ----------------
Time     = 1700000.000000 Temp     = 239.690552 Press    = 659.463511 
PotEng   = -8.869605 KinEng   = 0.713077 Lx       = 24.592623 
Ly       = 24.592623 Lz       = 24.592623 Density  = 1.029784 
Volume   = 14873.547434 
---------------- Step   350000 ----- CPU =    218.1479 (sec) ----------------
Time     = 1750000.000000 Temp     = 228.070454 Press    = 675.370459 
PotEng   = -8.796495 KinEng   = 0.678507 Lx       = 24.560267 
Ly       = 24.560267 Lz       = 24.560267 Density  = 1.033859 
Volume   = 14814.918016 
---------------- Step   360000 ----- CPU =    224.3591 (sec) ----------------
Time     = 1800000.000000 Temp     = 234.015249 Press    = 861.676047 
PotEng   = -8.848807 KinEng   = 0.696193 Lx       = 24.447172 
Ly       = 24.447172 Lz       = 24.447172 Density  = 1.048274 
Volume   = 14611.199473 
---------------- Step   370000 ----- CPU =    230.5126 (sec) ----------------
Time     = 1850000.000000 Temp     = 223.089130 Press    = 17.306586 
PotEng   = -8.837401 KinEng   = 0.663688 Lx       = 24.506338 
Ly       = 24.506338 Lz       = 24.506338 Density  = 1.040699 
Volume   = 14717.541801 
---------------- Step   380000 ----- CPU =    236.5917 (sec) ----------------
Time     = 1900000.000000 Temp     = 234.822048 Press    = 621.326714 
PotEng   = -8.912142 KinEng   = 0.698593 Lx       = 24.544932 
Ly       = 24.544932 Lz       = 24.544932 Density  = 1.035798 
Volume   = 14787.184828 
---------------- Step   390000 ----- CPU =    242.7091 (sec) ----------------
Time     = 1950000.000000 Temp     = 227.671096 Press    = 1304.171778 
PotEng   = -8.871720 KinEng   = 0.677319 Lx       = 24.515508 
Ly       = 24.515508 Lz       = 24.515508 Density  = 1.039532 
Volume   = 14734.068221 
---------------- Step   400000 ----- CPU =    248.8603 (sec) ----------------
Time     = 2000000.000000 Temp     = 240.799123 Press    = 1924.356767 
PotEng   = -8.835937 KinEng   = 0.716375 Lx       = 24.516458 
Ly       = 24.516458 Lz       = 24.516458 Density  = 1.039411 
Volume   = 14735.781070 
---------------- Step   410000 ----- CPU =    255.1523 (sec) ----------------
Time     = 2050000.000000 Temp     = 234.561039 Press    = -24.157196 
PotEng   = -8.863430 KinEng   = 0.697816 Lx       = 24.542735 
Ly       = 24.542735 Lz       = 24.542735 Density  = 1.036076 
Volume   = 14783.213567 
---------------- Step   420000 ----- CPU =    261.4780 (sec) ----------------
Time     = 2100000.000000 Temp     = 236.230148 Press    = 1559.997068 
PotEng   = -8.830381 KinEng   = 0.702782 Lx       = 24.543538 
Ly       = 24.543538 Lz       = 24.543538 Density  = 1.035974 
Volume   = 14784.665826 
---------------- Step   430000 ----- CPU =    267.7569 (sec) ----------------
Time     = 2150000.000000 Temp     = 240.226358 Press    = 992.278219 
PotEng   = -8.890096 KinEng   = 0.714671 Lx       = 24.508286 
Ly       = 24.508286 Lz       = 24.508286 Density  = 1.040451 
Volume   = 14721.050515 
---------------- Step   440000 ----- CPU =    273.8852 (sec) ----------------
Time     = 2200000.000000 Temp     = 232.641604 Press    = 987.924884 
PotEng   = -8.830660 KinEng   = 0.692106 Lx       = 24.512642 
Ly       = 24.512642 Lz       = 24.512642 Density  = 1.039897 
Volume   = 14728.901485 
---------------- Step   450000 ----- CPU =    280.0277 (sec) ----------------
Time     = 2250000.000000 Temp     = 249.513103 Press    = -446.655289 
PotEng   = -8.882835 KinEng   = 0.742299 Lx       = 24.705649 
Ly       = 24.705649 Lz       = 24.705649 Density  = 1.015715 
Volume   = 15079.564438 
---------------- Step   460000 ----- CPU =    285.9894 (sec) ----------------
Time     = 2300000.000000 Temp     = 233.086272 Press    = 1375.946204 
PotEng   = -8.812244 KinEng   = 0.693429 Lx       = 24.427939 
Ly       = 24.427939 Lz       = 24.427939 Density  = 1.050752 
Volume   = 14576.742804 
---------------- Step   470000 ----- CPU =    292.0809 (sec) ----------------
Time     = 2350000.000000 Temp     = 244.765878 Press    = 697.912602 
PotEng   = -8.871998 KinEng   = 0.728176 Lx       = 24.591578 
Ly       = 24.591578 Lz       = 24.591578 Density  = 1.029915 
Volume   = 14871.651984 
---------------- Step   480000 ----- CPU =    298.0281 (sec) ----------------
Time     = 2400000.000000 Temp     = 248.604235 Press    = 1610.554038 
PotEng   = -8.877431 KinEng   = 0.739595 Lx       = 24.466658 
Ly       = 24.466658 Lz       = 24.466658 Density  = 1.045771 
Volume   = 14646.166092 
---------------- Step   490000 ----- CPU =    304.1754 (sec) ----------------
Time     = 2450000.000000 Temp     = 255.466460 Press    = 1337.849479 
PotEng   = -8.842158 KinEng   = 0.760010 Lx       = 24.496496 
Ly       = 24.496496 Lz       = 24.496496 Density  = 1.041954 
Volume   = 14699.815993 
---------------- Step   500000 ----- CPU =    310.3506 (sec) ----------------
Time     = 2500000.000000 Temp     = 221.723555 Press    = -192.600477 
PotEng   = -8.807811 KinEng   = 0.659625 Lx       = 24.567399 
Ly       = 24.567399 Lz       = 24.567399 Density  = 1.032959 
Volume   = 14827.828024 
---------------- Step   510000 ----- CPU =    316.5370 (sec) ----------------
Time     = 2550000.000000 Temp     = 229.114413 Press    = 413.674232 
PotEng   = -8.884922 KinEng   = 0.681613 Lx       = 24.595608 
Ly       = 24.595608 Lz       = 24.595608 Density  = 1.029409 
Volume   = 14878.964168 
---------------- Step   520000 ----- CPU =    322.6340 (sec) ----------------
Time     = 2600000.000000 Temp     = 226.853169 Press    = 602.268654 
PotEng   = -8.803528 KinEng   = 0.674885 Lx       = 24.521033 
Ly       = 24.521033 Lz       = 24.521033 Density  = 1.038829 
Volume   = 14744.032331 
---------------- Step   530000 ----- CPU =    328.8123 (sec) ----------------
Time     = 2650000.000000 Temp     = 234.431369 Press    = 1542.034984 
PotEng   = -8.856519 KinEng   = 0.697431 Lx       = 24.400483 
Ly       = 24.400483 Lz       = 24.400483 Density  = 1.054303 
Volume   = 14527.645901 
---------------- Step   540000 ----- CPU =    334.9005 (sec) ----------------
Time     = 2700000.000000 Temp     = 226.166531 Press    = 936.094654 
PotEng   = -8.821582 KinEng   = 0.672843 Lx       = 24.574069 
Ly       = 24.574069 Lz       = 24.574069 Density  = 1.032118 
Volume   = 14839.908183 
---------------- Step   550000 ----- CPU =    340.9264 (sec) ----------------
Time     = 2750000.000000 Temp     = 232.402769 Press    = 951.600785 
PotEng   = -8.800157 KinEng   = 0.691395 Lx       = 24.625825 
Ly       = 24.625825 Lz       = 24.625825 Density  = 1.025624 
Volume   = 14933.870542 
---------------- Step   560000 ----- CPU =    346.9683 (sec) ----------------
Time     = 2800000.000000 Temp     = 227.661985 Press    = 1306.912973 
PotEng   = -8.867375 KinEng   = 0.677292 Lx       = 24.467225 
Ly       = 24.467225 Lz       = 24.467225 Density  = 1.045698 
Volume   = 14647.183528 
---------------- Step   570000 ----- CPU =    353.0801 (sec) ----------------
Time     = 2850000.000000 Temp     = 227.303548 Press    = 1004.358112 
PotEng   = -8.861121 KinEng   = 0.676225 Lx       = 24.384364 
Ly       = 24.384364 Lz       = 24.384364 Density  = 1.056395 
Volume   = 14498.874243 
---------------- Step   580000 ----- CPU =    359.0133 (sec) ----------------
Time     = 2900000.000000 Temp     = 229.832022 Press    = 272.160621 
PotEng   = -8.802835 KinEng   = 0.683748 Lx       = 24.574784 
Ly       = 24.574784 Lz       = 24.574784 Density  = 1.032028 
Volume   = 14841.203058 
---------------- Step   590000 ----- CPU =    365.1074 (sec) ----------------
Time     = 2950000.000000 Temp     = 241.632250 Press    = 228.622508 
PotEng   = -8.868364 KinEng   = 0.718853 Lx       = 24.549355 
Ly       = 24.549355 Lz       = 24.549355 Density  = 1.035238 
Volume   = 14795.180344 
---------------- Step   600000 ----- CPU =    371.3150 (sec) ----------------
Time     = 3000000.000000 Temp     = 228.506266 Press    = 1900.967330 
PotEng   = -8.809850 KinEng   = 0.679803 Lx       = 24.528941 
Ly       = 24.528941 Lz       = 24.528941 Density  = 1.037825 
Volume   = 14758.302565 
---------------- Step   610000 ----- CPU =    377.5150 (sec) ----------------
Time     = 3050000.000000 Temp     = 222.404310 Press    = 913.924515 
PotEng   = -8.852467 KinEng   = 0.661650 Lx       = 24.461844 
Ly       = 24.461844 Lz       = 24.461844 Density  = 1.046388 
Volume   = 14637.522310 
---------------- Step   620000 ----- CPU =    383.6124 (sec) ----------------
Time     = 3100000.000000 Temp     = 230.283986 Press    = 1104.299056 
PotEng   = -8.877981 KinEng   = 0.685092 Lx       = 24.606239 
Ly       = 24.606239 Lz       = 24.606239 Density  = 1.028075 
Volume   = 14898.265653 
---------------- Step   630000 ----- CPU =    389.6069 (sec) ----------------
Time     = 3150000.000000 Temp     = 225.993287 Press    = 653.073348 
PotEng   = -8.922557 KinEng   = 0.672327 Lx       = 24.730647 
Ly       = 24.730647 Lz       = 24.730647 Density  = 1.012638 
Volume   = 15125.384977 
---------------- Step   640000 ----- CPU =    395.5894 (sec) ----------------
Time     = 3200000.000000 Temp     = 221.208122 Press    = 473.896635 
PotEng   = -8.815993 KinEng   = 0.658092 Lx       = 24.387612 
Ly       = 24.387612 Lz       = 24.387612 Density  = 1.055973 
Volume   = 14504.669113 
---------------- Step   650000 ----- CPU =    401.7526 (sec) ----------------
Time     = 3250000.000000 Temp     = 237.024776 Press    = 1863.151085 
PotEng   = -8.857969 KinEng   = 0.705146 Lx       = 24.501537 
Ly       = 24.501537 Lz       = 24.501537 Density  = 1.041311 
Volume   = 14708.893003 
---------------- Step   660000 ----- CPU =    407.8560 (sec) ----------------
Time     = 3300000.000000 Temp     = 238.738537 Press    = 485.467138 
PotEng   = -8.839925 KinEng   = 0.710244 Lx       = 24.627961 
Ly       = 24.627961 Lz       = 24.627961 Density  = 1.025357 
Volume   = 14937.757194 
---------------- Step   670000 ----- CPU =    414.1125 (sec) ----------------
Time     = 3350000.000000 Temp     = 232.237941 Press    = 1445.729430 
PotEng   = -8.878333 KinEng   = 0.690905 Lx       = 24.509166 
Ly       = 24.509166 Lz       = 24.509166 Density  = 1.040339 
Volume   = 14722.637426 
---------------- Step   680000 ----- CPU =    420.2317 (sec) ----------------
Time     = 3400000.000000 Temp     = 228.727652 Press    = 1572.074395 
PotEng   = -8.861912 KinEng   = 0.680462 Lx       = 24.490754 
Ly       = 24.490754 Lz       = 24.490754 Density  = 1.042687 
Volume   = 14689.481349 
---------------- Step   690000 ----- CPU =    426.2723 (sec) ----------------
Time     = 3450000.000000 Temp     = 238.241892 Press    = 1480.600976 
PotEng   = -8.896306 KinEng   = 0.708767 Lx       = 24.544190 
Ly       = 24.544190 Lz       = 24.544190 Density  = 1.035892 
Volume   = 14785.843603 
---------------- Step   700000 ----- CPU =    432.4457 (sec) ----------------
Time     = 3500000.000000 Temp     = 225.239011 Press    = 969.797140 
PotEng   = -8.843541 KinEng   = 0.670083 Lx       = 24.427199 
Ly       = 24.427199 Lz       = 24.427199 Density  = 1.050847 
Volume   = 14575.416885 
---------------- Step   710000 ----- CPU =    438.4787 (sec) ----------------
Time     = 3550000.000000 Temp     = 237.775888 Press    = 13.383054 
PotEng   = -8.845552 KinEng   = 0.707380 Lx       = 24.529007 
Ly       = 24.529007 Lz       = 24.529007 Density  = 1.037817 
Volume   = 14758.421696 
---------------- Step   720000 ----- CPU =    444.6513 (sec) ----------------
Time     = 3600000.000000 Temp     = 221.447095 Press    = 1764.711338 
PotEng   = -8.853382 KinEng   = 0.658802 Lx       = 24.460211 
Ly       = 24.460211 Lz       = 24.460211 Density  = 1.046598 
Volume   = 14634.591771 
---------------- Step   730000 ----- CPU =    450.9986 (sec) ----------------
Time     = 3650000.000000 Temp     = 220.373486 Press    = 847.236003 
PotEng   = -8.877471 KinEng   = 0.655609 Lx       = 24.359249 
Ly       = 24.359249 Lz       = 24.359249 Density  = 1.059666 
Volume   = 14454.120922 
---------------- Step   740000 ----- CPU =    457.4711 (sec) ----------------
Time     = 3700000.000000 Temp     = 234.533154 Press    = 593.961845 
PotEng   = -8.859370 KinEng   = 0.697733 Lx       = 24.521754 
Ly       = 24.521754 Lz       = 24.521754 Density  = 1.038738 
Volume   = 14745.332885 
---------------- Step   750000 ----- CPU =    464.0442 (sec) ----------------
Time     = 3750000.000000 Temp     = 230.298015 Press    = 909.761913 
PotEng   = -8.857951 KinEng   = 0.685134 Lx       = 24.405431 
Ly       = 24.405431 Lz       = 24.405431 Density  = 1.053661 
Volume   = 14536.485931 
---------------- Step   760000 ----- CPU =    470.6403 (sec) ----------------
Time     = 3800000.000000 Temp     = 210.491872 Press    = 965.260736 
PotEng   = -8.851270 KinEng   = 0.626211 Lx       = 24.388472 
Ly       = 24.388472 Lz       = 24.388472 Density  = 1.055861 
Volume   = 14506.203435 
---------------- Step   770000 ----- CPU =    476.9729 (sec) ----------------
Time     = 3850000.000000 Temp     = 231.261758 Press    = 786.896407 
PotEng   = -8.794467 KinEng   = 0.688001 Lx       = 24.557546 
Ly       = 24.557546 Lz       = 24.557546 Density  = 1.034203 
Volume   = 14809.993880 
---------------- Step   780000 ----- CPU =    483.1073 (sec) ----------------
Time     = 3900000.000000 Temp     = 230.290878 Press    = 765.086461 
PotEng   = -8.771625 KinEng   = 0.685113 Lx       = 24.445951 
Ly       = 24.445951 Lz       = 24.445951 Density  = 1.048431 
Volume   = 14609.011002 
---------------- Step   790000 ----- CPU =    489.3192 (sec) ----------------
Time     = 3950000.000000 Temp     = 230.348368 Press    = 460.953742 
PotEng   = -8.881727 KinEng   = 0.685284 Lx       = 24.552056 
Ly       = 24.552056 Lz       = 24.552056 Density  = 1.034896 
Volume   = 14800.064954 
---------------- Step   800000 ----- CPU =    495.4139 (sec) ----------------
Time     = 4000000.000000 Temp     = 225.444942 Press    = 40.448865 
PotEng   = -8.874785 KinEng   = 0.670696 Lx       = 24.686472 
Ly       = 24.686472 Lz       = 24.686472 Density  = 1.018084 
Volume   = 15044.477416 
---------------- Step   810000 ----- CPU =    501.3435 (sec) ----------------
Time     = 4050000.000000 Temp     = 223.285590 Press    = 1161.988321 
PotEng   = -8.853183 KinEng   = 0.664272 Lx       = 24.392384 
Ly       = 24.392384 Lz       = 24.392384 Density  = 1.055353 
Volume   = 14513.184932 
---------------- Step   820000 ----- CPU =    507.3186 (sec) ----------------
Time     = 4100000.000000 Temp     = 226.149122 Press    = -343.810643 
PotEng   = -8.894286 KinEng   = 0.672791 Lx       = 24.582879 
Ly       = 24.582879 Lz       = 24.582879 Density  = 1.031009 
Volume   = 14855.874410 
---------------- Step   830000 ----- CPU =    513.4693 (sec) ----------------
Time     = 4150000.000000 Temp     = 228.299782 Press    = -181.383205 
PotEng   = -8.753800 KinEng   = 0.679189 Lx       = 24.411180 
Ly       = 24.411180 Lz       = 24.411180 Density  = 1.052917 
Volume   = 14546.761687 
---------------- Step   840000 ----- CPU =    519.7130 (sec) ----------------
Time     = 4200000.000000 Temp     = 206.419441 Press    = 1213.408948 
PotEng   = -8.876436 KinEng   = 0.614095 Lx       = 24.421397 
Ly       = 24.421397 Lz       = 24.421397 Density  = 1.051596 
Volume   = 14565.034174 
---------------- Step   850000 ----- CPU =    526.1276 (sec) ----------------
Time     = 4250000.000000 Temp     = 238.911137 Press    = 1803.504278 
PotEng   = -8.782804 KinEng   = 0.710758 Lx       = 24.440255 
Ly       = 24.440255 Lz       = 24.440255 Density  = 1.049164 
Volume   = 14598.800685 
---------------- Step   860000 ----- CPU =    532.4786 (sec) ----------------
Time     = 4300000.000000 Temp     = 237.317345 Press    = 2110.006635 
PotEng   = -8.803214 KinEng   = 0.706016 Lx       = 24.388067 
Ly       = 24.388067 Lz       = 24.388067 Density  = 1.055914 
Volume   = 14505.480777 
---------------- Step   870000 ----- CPU =    538.7713 (sec) ----------------
Time     = 4350000.000000 Temp     = 237.133227 Press    = 1065.561567 
PotEng   = -8.869981 KinEng   = 0.705469 Lx       = 24.439719 
Ly       = 24.439719 Lz       = 24.439719 Density  = 1.049233 
Volume   = 14597.840811 
---------------- Step   880000 ----- CPU =    545.0594 (sec) ----------------
Time     = 4400000.000000 Temp     = 225.422294 Press    = 1025.333324 
PotEng   = -8.908744 KinEng   = 0.670629 Lx       = 24.509438 
Ly       = 24.509438 Lz       = 24.509438 Density  = 1.040304 
Volume   = 14723.127031 
---------------- Step   890000 ----- CPU =    551.2794 (sec) ----------------
Time     = 4450000.000000 Temp     = 225.660900 Press    = 423.039111 
PotEng   = -8.854605 KinEng   = 0.671339 Lx       = 24.536605 
Ly       = 24.536605 Lz       = 24.536605 Density  = 1.036853 
Volume   = 14772.140329 
---------------- Step   900000 ----- CPU =    557.2774 (sec) ----------------
Time     = 4500000.000000 Temp     = 232.734476 Press    = 1115.389457 
PotEng   = -8.870936 KinEng   = 0.692382 Lx       = 24.561460 
Ly       = 24.561460 Lz       = 24.561460 Density  = 1.033708 
Volume   = 14817.076575 
---------------- Step   910000 ----- CPU =    563.4343 (sec) ----------------
Time     = 4550000.000000 Temp     = 233.670887 Press    = 1432.049109 
PotEng   = -8.831947 KinEng   = 0.695168 Lx       = 24.412221 
Ly       = 24.412221 Lz       = 24.412221 Density  = 1.052782 
Volume   = 14548.623429 
---------------- Step   920000 ----- CPU =    569.5093 (sec) ----------------
Time     = 4600000.000000 Temp     = 231.000621 Press    = 1983.980823 
PotEng   = -8.834413 KinEng   = 0.687224 Lx       = 24.380722 
Ly       = 24.380722 Lz       = 24.380722 Density  = 1.056868 
Volume   = 14492.379515 
---------------- Step   930000 ----- CPU =    575.6913 (sec) ----------------
Time     = 4650000.000000 Temp     = 237.069208 Press    = 897.277801 
PotEng   = -8.829406 KinEng   = 0.705278 Lx       = 24.531200 
Ly       = 24.531200 Lz       = 24.531200 Density  = 1.037538 
Volume   = 14762.379908 
---------------- Step   940000 ----- CPU =    581.6595 (sec) ----------------
Time     = 4700000.000000 Temp     = 213.277076 Press    = -248.785317 
PotEng   = -8.872624 KinEng   = 0.634497 Lx       = 24.544862 
Ly       = 24.544862 Lz       = 24.544862 Density  = 1.035807 
Volume   = 14787.057472 
---------------- Step   950000 ----- CPU =    588.0958 (sec) ----------------
Time     = 4750000.000000 Temp     = 239.345956 Press    = 711.810960 
PotEng   = -8.776213 KinEng   = 0.712051 Lx       = 24.557696 
Ly       = 24.557696 Lz       = 24.557696 Density  = 1.034184 
Volume   = 14810.266013 
---------------- Step   960000 ----- CPU =    594.3567 (sec) ----------------
Time     = 4800000.000000 Temp     = 224.309246 Press    = 531.116455 
PotEng   = -8.917089 KinEng   = 0.667317 Lx       = 24.554775 
Ly       = 24.554775 Lz       = 24.554775 Density  = 1.034553 
Volume   = 14804.981381 
---------------- Step   970000 ----- CPU =    600.7138 (sec) ----------------
Time     = 4850000.000000 Temp     = 238.402973 Press    = 1209.112593 
PotEng   = -8.855389 KinEng   = 0.709246 Lx       = 24.371157 
Ly       = 24.371157 Lz       = 24.371157 Density  = 1.058113 
Volume   = 14475.328376 
---------------- Step   980000 ----- CPU =    607.0184 (sec) ----------------
Time     = 4900000.000000 Temp     = 217.016790 Press    = 1026.473452 
PotEng   = -8.807828 KinEng   = 0.645622 Lx       = 24.557823 
Ly       = 24.557823 Lz       = 24.557823 Density  = 1.034168 
Volume   = 14810.495040 
---------------- Step   990000 ----- CPU =    613.2746 (sec) ----------------
Time     = 4950000.000000 Temp     = 224.178432 Press    = 692.002563 
PotEng   = -8.823972 KinEng   = 0.666928 Lx       = 24.517693 
Ly       = 24.517693 Lz       = 24.517693 Density  = 1.039254 
Volume   = 14738.008127 
---------------- Step  1000000 ----- CPU =    619.6291 (sec) ----------------
Time     = 5000000.000000 Temp     = 226.154683 Press    = 2263.003355 
PotEng   = -8.821577 KinEng   = 0.672808 Lx       = 24.456904 
Ly       = 24.456904 Lz       = 24.456904 Density  = 1.047023 
Volume   = 14628.656546 
---------------- Step  1010000 ----- CPU =    625.9626 (sec) ----------------
Time     = 5050000.000000 Temp     = 218.032807 Press    = 1079.167283 
PotEng   = -8.898927 KinEng   = 0.648645 Lx       = 24.430827 
Ly       = 24.430827 Lz       = 24.430827 Density  = 1.050379 
Volume   = 14581.912304 
---------------- Step  1020000 ----- CPU =    632.0245 (sec) ----------------
Time     = 5100000.000000 Temp     = 245.787585 Press    = 1451.056467 
PotEng   = -8.911069 KinEng   = 0.731215 Lx       = 24.514653 
Ly       = 24.514653 Lz       = 24.514653 Density  = 1.039641 
Volume   = 14732.527224 
---------------- Step  1030000 ----- CPU =    638.3709 (sec) ----------------
Time     = 5150000.000000 Temp     = 208.787655 Press    = 2573.258465 
PotEng   = -8.884541 KinEng   = 0.621141 Lx       = 24.398027 
Ly       = 24.398027 Lz       = 24.398027 Density  = 1.054621 
Volume   = 14523.261078 
---------------- Step  1040000 ----- CPU =    644.6652 (sec) ----------------
Time     = 5200000.000000 Temp     = 242.614042 Press    = 329.221045 
PotEng   = -8.803220 KinEng   = 0.721774 Lx       = 24.617510 
Ly       = 24.617510 Lz       = 24.617510 Density  = 1.026664 
Volume   = 14918.748061 
---------------- Step  1050000 ----- CPU =    650.8981 (sec) ----------------
Time     = 5250000.000000 Temp     = 216.393649 Press    = -40.015743 
PotEng   = -8.864464 KinEng   = 0.643769 Lx       = 24.612773 
Ly       = 24.612773 Lz       = 24.612773 Density  = 1.027256 
Volume   = 14910.136807 
---------------- Step  1060000 ----- CPU =    657.4636 (sec) ----------------
Time     = 5300000.000000 Temp     = 235.994380 Press    = 430.447064 
PotEng   = -8.839057 KinEng   = 0.702080 Lx       = 24.457919 
Ly       = 24.457919 Lz       = 24.457919 Density  = 1.046892 
Volume   = 14630.477567 
---------------- Step  1070000 ----- CPU =    663.7579 (sec) ----------------
Time     = 5350000.000000 Temp     = 240.775131 Press    = 815.612616 
PotEng   = -8.859653 KinEng   = 0.716303 Lx       = 24.507449 
Ly       = 24.507449 Lz       = 24.507449 Density  = 1.040558 
Volume   = 14719.542313 
---------------- Step  1080000 ----- CPU =    670.0014 (sec) ----------------
Time     = 5400000.000000 Temp     = 240.840747 Press    = 668.386967 
PotEng   = -8.860648 KinEng   = 0.716498 Lx       = 24.435990 
Ly       = 24.435990 Lz       = 24.435990 Density  = 1.049713 
Volume   = 14591.159329 
---------------- Step  1090000 ----- CPU =    676.2908 (sec) ----------------
Time     = 5450000.000000 Temp     = 219.710266 Press    = 909.290991 
PotEng   = -8.819811 KinEng   = 0.653635 Lx       = 24.490754 
Ly       = 24.490754 Lz       = 24.490754 Density  = 1.042687 
Volume   = 14689.482184 
---------------- Step  1100000 ----- CPU =    682.5241 (sec) ----------------
Time     = 5500000.000000 Temp     = 226.710683 Press    = 656.665436 
PotEng   = -8.824022 KinEng   = 0.674462 Lx       = 24.362949 
Ly       = 24.362949 Lz       = 24.362949 Density  = 1.059183 
Volume   = 14460.708542 
---------------- Step  1110000 ----- CPU =    688.8298 (sec) ----------------
Time     = 5550000.000000 Temp     = 228.768380 Press    = 760.395227 
PotEng   = -8.873025 KinEng   = 0.680583 Lx       = 24.531598 
Ly       = 24.531598 Lz       = 24.531598 Density  = 1.037488 
Volume   = 14763.098274 
---------------- Step  1120000 ----- CPU =    694.9922 (sec) ----------------
Time     = 5600000.000000 Temp     = 224.366209 Press    = 29.788831 
PotEng   = -8.812175 KinEng   = 0.667487 Lx       = 24.567332 
Ly       = 24.567332 Lz       = 24.567332 Density  = 1.032967 
Volume   = 14827.706770 
---------------- Step  1130000 ----- CPU =    701.0267 (sec) ----------------
Time     = 5650000.000000 Temp     = 225.246130 Press    = 249.012890 
PotEng   = -8.883186 KinEng   = 0.670105 Lx       = 24.564908 
Ly       = 24.564908 Lz       = 24.564908 Density  = 1.033273 
Volume   = 14823.318341 
---------------- Step  1140000 ----- CPU =    707.1902 (sec) ----------------
Time     = 5700000.000000 Temp     = 231.282173 Press    = 538.499256 
PotEng   = -8.811718 KinEng   = 0.688062 Lx       = 24.423563 
Ly       = 24.423563 Lz       = 24.423563 Density  = 1.051316 
Volume   = 14568.909333 
---------------- Step  1150000 ----- CPU =    713.4580 (sec) ----------------
Time     = 5750000.000000 Temp     = 233.873094 Press    = 1956.650312 
PotEng   = -8.820272 KinEng   = 0.695770 Lx       = 24.478727 
Ly       = 24.478727 Lz       = 24.478727 Density  = 1.044225 
Volume   = 14667.850766 
---------------- Step  1160000 ----- CPU =    719.5723 (sec) ----------------
Time     = 5800000.000000 Temp     = 224.624617 Press    = 1107.820908 
PotEng   = -8.907499 KinEng   = 0.668256 Lx       = 24.553381 
Ly       = 24.553381 Lz       = 24.553381 Density  = 1.034729 
Volume   = 14802.459793 
---------------- Step  1170000 ----- CPU =    726.0122 (sec) ----------------
Time     = 5850000.000000 Temp     = 247.244189 Press    = 1214.394594 
PotEng   = -8.883578 KinEng   = 0.735549 Lx       = 24.387379 
Ly       = 24.387379 Lz       = 24.387379 Density  = 1.056003 
Volume   = 14504.252873 
---------------- Step  1180000 ----- CPU =    732.4812 (sec) ----------------
Time     = 5900000.000000 Temp     = 224.359898 Press    = 409.386594 
PotEng   = -8.894154 KinEng   = 0.667468 Lx       = 24.489967 
Ly       = 24.489967 Lz       = 24.489967 Density  = 1.042788 
Volume   = 14688.064865 
---------------- Step  1190000 ----- CPU =    738.7288 (sec) ----------------
Time     = 5950000.000000 Temp     = 223.887061 Press    = -288.856392 
PotEng   = -8.819760 KinEng   = 0.666061 Lx       = 24.485443 
Ly       = 24.485443 Lz       = 24.485443 Density  = 1.043366 
Volume   = 14679.927952 
---------------- Step  1200000 ----- CPU =    745.0380 (sec) ----------------
Time     = 6000000.000000 Temp     = 238.727511 Press    = 954.096825 
PotEng   = -8.847691 KinEng   = 0.710212 Lx       = 24.271183 
Ly       = 24.271183 Lz       = 24.271183 Density  = 1.071242 
Volume   = 14297.919011 
---------------- Step  1210000 ----- CPU =    751.2385 (sec) ----------------
Time     = 6050000.000000 Temp     = 232.859090 Press    = 822.909838 
PotEng   = -8.851534 KinEng   = 0.692753 Lx       = 24.463293 
Ly       = 24.463293 Lz       = 24.463293 Density  = 1.046203 
Volume   = 14640.123070 
---------------- Step  1220000 ----- CPU =    757.5509 (sec) ----------------
Time     = 6100000.000000 Temp     = 235.673048 Press    = 2638.033829 
PotEng   = -8.925502 KinEng   = 0.701125 Lx       = 24.462387 
Ly       = 24.462387 Lz       = 24.462387 Density  = 1.046319 
Volume   = 14638.496823 
---------------- Step  1230000 ----- CPU =    763.6882 (sec) ----------------
Time     = 6150000.000000 Temp     = 232.447398 Press    = 1645.561562 
PotEng   = -8.889594 KinEng   = 0.691528 Lx       = 24.466104 
Ly       = 24.466104 Lz       = 24.466104 Density  = 1.045842 
Volume   = 14645.171996 
---------------- Step  1240000 ----- CPU =    769.9341 (sec) ----------------
Time     = 6200000.000000 Temp     = 223.473593 Press    = 1039.420005 
PotEng   = -8.801408 KinEng   = 0.664831 Lx       = 24.505996 
Ly       = 24.505996 Lz       = 24.505996 Density  = 1.040743 
Volume   = 14716.925810 
---------------- Step  1250000 ----- CPU =    776.0960 (sec) ----------------
Time     = 6250000.000000 Temp     = 232.716682 Press    = 1187.241635 
PotEng   = -8.878201 KinEng   = 0.692329 Lx       = 24.477837 
Ly       = 24.477837 Lz       = 24.477837 Density  = 1.044339 
Volume   = 14666.250607 
---------------- Step  1260000 ----- CPU =    782.3801 (sec) ----------------
Time     = 6300000.000000 Temp     = 234.709574 Press    = 1295.429983 
PotEng   = -8.901363 KinEng   = 0.698258 Lx       = 24.472521 
Ly       = 24.472521 Lz       = 24.472521 Density  = 1.045019 
Volume   = 14656.697768 
---------------- Step  1270000 ----- CPU =    788.7400 (sec) ----------------
Time     = 6350000.000000 Temp     = 226.583179 Press    = 1445.238295 
PotEng   = -8.903872 KinEng   = 0.674082 Lx       = 24.517906 
Ly       = 24.517906 Lz       = 24.517906 Density  = 1.039227 
Volume   = 14738.393617 
---------------- Step  1280000 ----- CPU =    795.0734 (sec) ----------------
Time     = 6400000.000000 Temp     = 235.046650 Press    = 1016.166547 
PotEng   = -8.761323 KinEng   = 0.699261 Lx       = 24.305336 
Ly       = 24.305336 Lz       = 24.305336 Density  = 1.066733 
Volume   = 14358.361640 
---------------- Step  1290000 ----- CPU =    801.5049 (sec) ----------------
Time     = 6450000.000000 Temp     = 228.604740 Press    = 557.170981 
PotEng   = -8.903623 KinEng   = 0.680096 Lx       = 24.522508 
Ly       = 24.522508 Lz       = 24.522508 Density  = 1.038642 
Volume   = 14746.694178 
---------------- Step  1300000 ----- CPU =    807.5241 (sec) ----------------
Time     = 6500000.000000 Temp     = 228.319157 Press    = 1441.333660 
PotEng   = -8.850195 KinEng   = 0.679247 Lx       = 24.524846 
Ly       = 24.524846 Lz       = 24.524846 Density  = 1.038345 
Volume   = 14750.911879 
---------------- Step  1310000 ----- CPU =    813.8296 (sec) ----------------
Time     = 6550000.000000 Temp     = 221.479335 Press    = 1004.553030 
PotEng   = -8.815833 KinEng   = 0.658898 Lx       = 24.389313 
Ly       = 24.389313 Lz       = 24.389313 Density  = 1.055752 
Volume   = 14507.705031 
---------------- Step  1320000 ----- CPU =    819.9323 (sec) ----------------
Time     = 6600000.000000 Temp     = 236.098489 Press    = 1614.811319 
PotEng   = -8.853644 KinEng   = 0.702390 Lx       = 24.482211 
Ly       = 24.482211 Lz       = 24.482211 Density  = 1.043779 
Volume   = 14674.114158 
---------------- Step  1330000 ----- CPU =    826.4541 (sec) ----------------
Time     = 6650000.000000 Temp     = 230.351707 Press    = 523.633740 
PotEng   = -8.811754 KinEng   = 0.685294 Lx       = 24.471616 
Ly       = 24.471616 Lz       = 24.471616 Density  = 1.045135 
Volume   = 14655.071389 
---------------- Step  1340000 ----- CPU =    832.6442 (sec) ----------------
Time     = 6700000.000000 Temp     = 220.848898 Press    = 1813.998189 
PotEng   = -8.856135 KinEng   = 0.657023 Lx       = 24.502226 
Ly       = 24.502226 Lz       = 24.502226 Density  = 1.041223 
Volume   = 14710.134699 
---------------- Step  1350000 ----- CPU =    838.7023 (sec) ----------------
Time     = 6750000.000000 Temp     = 232.852104 Press    = 696.996642 
PotEng   = -8.926176 KinEng   = 0.692732 Lx       = 24.540039 
Ly       = 24.540039 Lz       = 24.540039 Density  = 1.036418 
Volume   = 14778.342719 
---------------- Step  1360000 ----- CPU =    844.7751 (sec) ----------------
Time     = 6800000.000000 Temp     = 236.887392 Press    = 88.890192 
PotEng   = -8.834360 KinEng   = 0.704737 Lx       = 24.551438 
Ly       = 24.551438 Lz       = 24.551438 Density  = 1.034975 
Volume   = 14798.947374 
---------------- Step  1370000 ----- CPU =    851.1519 (sec) ----------------
Time     = 6850000.000000 Temp     = 240.929964 Press    = 527.488071 
PotEng   = -8.835234 KinEng   = 0.716764 Lx       = 24.516455 
Ly       = 24.516455 Lz       = 24.516455 Density  = 1.039411 
Volume   = 14735.776305 
---------------- Step  1380000 ----- CPU =    857.4992 (sec) ----------------
Time     = 6900000.000000 Temp     = 229.090345 Press    = 1438.308228 
PotEng   = -8.844732 KinEng   = 0.681541 Lx       = 24.477216 
Ly       = 24.477216 Lz       = 24.477216 Density  = 1.044418 
Volume   = 14665.135670 
---------------- Step  1390000 ----- CPU =    863.6414 (sec) ----------------
Time     = 6950000.000000 Temp     = 227.406526 Press    = 957.020945 
PotEng   = -8.830646 KinEng   = 0.676532 Lx       = 24.425362 
Ly       = 24.425362 Lz       = 24.425362 Density  = 1.051084 
Volume   = 14572.130346 
---------------- Step  1400000 ----- CPU =    869.9301 (sec) ----------------
Time     = 7000000.000000 Temp     = 222.045967 Press    = 355.995693 
PotEng   = -8.762870 KinEng   = 0.660584 Lx       = 24.400033 
Ly       = 24.400033 Lz       = 24.400033 Density  = 1.054361 
Volume   = 14526.843054 
---------------- Step  1410000 ----- CPU =    876.0346 (sec) ----------------
Time     = 7050000.000000 Temp     = 223.435236 Press    = 498.970546 
PotEng   = -8.891929 KinEng   = 0.664717 Lx       = 24.530536 
Ly       = 24.530536 Lz       = 24.530536 Density  = 1.037623 
Volume   = 14761.181108 
---------------- Step  1420000 ----- CPU =    881.8116 (sec) ----------------
Time     = 7100000.000000 Temp     = 227.603734 Press    = 1178.579795 
PotEng   = -8.890168 KinEng   = 0.677118 Lx       = 24.616264 
Ly       = 24.616264 Lz       = 24.616264 Density  = 1.026819 
Volume   = 14916.482978 
---------------- Step  1430000 ----- CPU =    887.8456 (sec) ----------------
Time     = 7150000.000000 Temp     = 230.792002 Press    = 287.416070 
PotEng   = -8.788883 KinEng   = 0.686603 Lx       = 24.584885 
Ly       = 24.584885 Lz       = 24.584885 Density  = 1.030756 
Volume   = 14859.511103 
---------------- Step  1440000 ----- CPU =    893.8820 (sec) ----------------
Time     = 7200000.000000 Temp     = 225.550756 Press    = 1597.901189 
PotEng   = -8.870019 KinEng   = 0.671011 Lx       = 24.493255 
Ly       = 24.493255 Lz       = 24.493255 Density  = 1.042368 
Volume   = 14693.982521 
---------------- Step  1450000 ----- CPU =    899.9110 (sec) ----------------
Time     = 7250000.000000 Temp     = 227.778090 Press    = 1839.975126 
PotEng   = -8.882132 KinEng   = 0.677637 Lx       = 24.443538 
Ly       = 24.443538 Lz       = 24.443538 Density  = 1.048741 
Volume   = 14604.684346 
---------------- Step  1460000 ----- CPU =    906.2256 (sec) ----------------
Time     = 7300000.000000 Temp     = 223.141962 Press    = 1451.831922 
PotEng   = -8.892164 KinEng   = 0.663845 Lx       = 24.401116 
Ly       = 24.401116 Lz       = 24.401116 Density  = 1.054220 
Volume   = 14528.777145 
---------------- Step  1470000 ----- CPU =    912.3673 (sec) ----------------
Time     = 7350000.000000 Temp     = 236.289206 Press    = 1965.845382 
PotEng   = -8.894902 KinEng   = 0.702958 Lx       = 24.509170 
Ly       = 24.509170 Lz       = 24.509170 Density  = 1.040339 
Volume   = 14722.644670 
---------------- Step  1480000 ----- CPU =    918.4256 (sec) ----------------
Time     = 7400000.000000 Temp     = 228.666742 Press    = 1184.911263 
PotEng   = -8.853486 KinEng   = 0.680281 Lx       = 24.620592 
Ly       = 24.620592 Lz       = 24.620592 Density  = 1.026278 
Volume   = 14924.352129 
---------------- Step  1490000 ----- CPU =    924.6058 (sec) ----------------
Time     = 7450000.000000 Temp     = 233.413112 Press    = 1462.607890 
PotEng   = -8.787708 KinEng   = 0.694401 Lx       = 24.489378 
Ly       = 24.489378 Lz       = 24.489378 Density  = 1.042863 
Volume   = 14687.005584 
---------------- Step  1500000 ----- CPU =    930.9858 (sec) ----------------
Time     = 7500000.000000 Temp     = 233.635547 Press    = 2033.893092 
PotEng   = -8.897640 KinEng   = 0.695063 Lx       = 24.483887 
Ly       = 24.483887 Lz       = 24.483887 Density  = 1.043565 
Volume   = 14677.127853 
---------------- Step  1510000 ----- CPU =    936.9107 (sec) ----------------
Time     = 7550000.000000 Temp     = 227.183252 Press    = 764.733290 
PotEng   = -8.848934 KinEng   = 0.675867 Lx       = 24.544697 
Ly       = 24.544697 Lz       = 24.544697 Density  = 1.035828 
Volume   = 14786.760433 
---------------- Step  1520000 ----- CPU =    942.8933 (sec) ----------------
Time     = 7600000.000000 Temp     = 222.953081 Press    = 614.424450 
PotEng   = -8.844216 KinEng   = 0.663283 Lx       = 24.479013 
Ly       = 24.479013 Lz       = 24.479013 Density  = 1.044188 
Volume   = 14668.364314 
---------------- Step  1530000 ----- CPU =    949.0208 (sec) ----------------
Time     = 7650000.000000 Temp     = 225.905065 Press    = 1067.175010 
PotEng   = -8.822943 KinEng   = 0.672065 Lx       = 24.541005 
Ly       = 24.541005 Lz       = 24.541005 Density  = 1.036295 
Volume   = 14780.089159 
---------------- Step  1540000 ----- CPU =    954.9999 (sec) ----------------
Time     = 7700000.000000 Temp     = 239.173517 Press    = 1328.819016 
PotEng   = -8.883561 KinEng   = 0.711538 Lx       = 24.501065 
Ly       = 24.501065 Lz       = 24.501065 Density  = 1.041371 
Volume   = 14708.042601 
---------------- Step  1550000 ----- CPU =    961.0807 (sec) ----------------
Time     = 7750000.000000 Temp     = 224.250283 Press    = 1032.032515 
PotEng   = -8.905547 KinEng   = 0.667142 Lx       = 24.520781 
Ly       = 24.520781 Lz       = 24.520781 Density  = 1.038861 
Volume   = 14743.578940 
---------------- Step  1560000 ----- CPU =    967.2410 (sec) ----------------
Time     = 7800000.000000 Temp     = 228.964932 Press    = 1783.400190 
PotEng   = -8.817380 KinEng   = 0.681168 Lx       = 24.429427 
Ly       = 24.429427 Lz       = 24.429427 Density  = 1.050560 
Volume   = 14579.405803 
---------------- Step  1570000 ----- CPU =    973.5201 (sec) ----------------
Time     = 7850000.000000 Temp     = 202.515248 Press    = -223.066716 
PotEng   = -8.896166 KinEng   = 0.602480 Lx       = 24.663906 
Ly       = 24.663906 Lz       = 24.663906 Density  = 1.020881 
Volume   = 15003.257936 
---------------- Step  1580000 ----- CPU =    979.7389 (sec) ----------------
Time     = 7900000.000000 Temp     = 222.534361 Press    = 1463.972601 
PotEng   = -8.859750 KinEng   = 0.662037 Lx       = 24.521536 
Ly       = 24.521536 Lz       = 24.521536 Density  = 1.038765 
Volume   = 14744.940944 
---------------- Step  1590000 ----- CPU =    986.1395 (sec) ----------------
Time     = 7950000.000000 Temp     = 234.886262 Press    = 413.161103 
PotEng   = -8.861721 KinEng   = 0.698784 Lx       = 24.547460 
Ly       = 24.547460 Lz       = 24.547460 Density  = 1.035478 
Volume   = 14791.754153 
---------------- Step  1600000 ----- CPU =    992.4362 (sec) ----------------
Time     = 8000000.000000 Temp     = 235.289774 Press    = 2365.118472 
PotEng   = -8.810733 KinEng   = 0.699984 Lx       = 24.392208 
Ly       = 24.392208 Lz       = 24.392208 Density  = 1.055376 
Volume   = 14512.871180 
---------------- Step  1610000 ----- CPU =    998.7487 (sec) ----------------
Time     = 8050000.000000 Temp     = 212.880731 Press    = 977.117268 
PotEng   = -8.897275 KinEng   = 0.633318 Lx       = 24.512753 
Ly       = 24.512753 Lz       = 24.512753 Density  = 1.039882 
Volume   = 14729.101490 
---------------- Step  1620000 ----- CPU =   1005.1517 (sec) ----------------
Time     = 8100000.000000 Temp     = 236.517571 Press    = 619.419635 
PotEng   = -8.777408 KinEng   = 0.703637 Lx       = 24.430655 
Ly       = 24.430655 Lz       = 24.430655 Density  = 1.050401 
Volume   = 14581.604667 
---------------- Step  1630000 ----- CPU =   1011.4712 (sec) ----------------
Time     = 8150000.000000 Temp     = 231.902557 Press    = 811.126214 
PotEng   = -8.854028 KinEng   = 0.689907 Lx       = 24.404581 
Ly       = 24.404581 Lz       = 24.404581 Density  = 1.053772 
Volume   = 14534.967097 
---------------- Step  1640000 ----- CPU =   1017.6291 (sec) ----------------
Time     = 8200000.000000 Temp     = 222.463850 Press    = 438.015562 
PotEng   = -8.896575 KinEng   = 0.661827 Lx       = 24.558773 
Ly       = 24.558773 Lz       = 24.558773 Density  = 1.034048 
Volume   = 14812.214266 
---------------- Step  1650000 ----- CPU =   1023.6626 (sec) ----------------
Time     = 8250000.000000 Temp     = 222.685997 Press    = 468.871631 
PotEng   = -8.899486 KinEng   = 0.662488 Lx       = 24.542210 
Ly       = 24.542210 Lz       = 24.542210 Density  = 1.036143 
Volume   = 14782.265416 
---------------- Step  1660000 ----- CPU =   1029.6778 (sec) ----------------
Time     = 8300000.000000 Temp     = 223.095667 Press    = 794.130528 
PotEng   = -8.818576 KinEng   = 0.663707 Lx       = 24.340109 
Ly       = 24.340109 Lz       = 24.340109 Density  = 1.062167 
Volume   = 14420.076751 
---------------- Step  1670000 ----- CPU =   1035.8834 (sec) ----------------
Time     = 8350000.000000 Temp     = 252.972884 Press    = 1580.504268 
PotEng   = -8.786578 KinEng   = 0.752591 Lx       = 24.287908 
Ly       = 24.287908 Lz       = 24.287908 Density  = 1.069031 
Volume   = 14327.496290 
---------------- Step  1680000 ----- CPU =   1042.1279 (sec) ----------------
Time     = 8400000.000000 Temp     = 232.741498 Press    = 919.828614 
PotEng   = -8.836910 KinEng   = 0.692403 Lx       = 24.523771 
Ly       = 24.523771 Lz       = 24.523771 Density  = 1.038481 
Volume   = 14748.972237 
---------------- Step  1690000 ----- CPU =   1048.3522 (sec) ----------------
Time     = 8450000.000000 Temp     = 225.499537 Press    = 1321.239826 
PotEng   = -8.872235 KinEng   = 0.670858 Lx       = 24.493764 
Ly       = 24.493764 Lz       = 24.493764 Density  = 1.042303 
Volume   = 14694.897694 
---------------- Step  1700000 ----- CPU =   1054.6070 (sec) ----------------
Time     = 8500000.000000 Temp     = 246.460657 Press    = 808.974214 
PotEng   = -8.900136 KinEng   = 0.733218 Lx       = 24.544786 
Ly       = 24.544786 Lz       = 24.544786 Density  = 1.035816 
Volume   = 14786.920538 
---------------- Step  1710000 ----- CPU =   1060.9909 (sec) ----------------
Time     = 8550000.000000 Temp     = 231.953382 Press    = 713.218177 
PotEng   = -8.838485 KinEng   = 0.690059 Lx       = 24.511934 
Ly       = 24.511934 Lz       = 24.511934 Density  = 1.039987 
Volume   = 14727.624947 
---------------- Step  1720000 ----- CPU =   1067.3078 (sec) ----------------
Time     = 8600000.000000 Temp     = 233.340947 Press    = 1000.473050 
PotEng   = -8.850322 KinEng   = 0.694187 Lx       = 24.364082 
Ly       = 24.364082 Lz       = 24.364082 Density  = 1.059035 
Volume   = 14462.725098 
---------------- Step  1730000 ----- CPU =   1073.7540 (sec) ----------------
Time     = 8650000.000000 Temp     = 224.255730 Press    = 869.968879 
PotEng   = -8.852581 KinEng   = 0.667158 Lx       = 24.434585 
Ly       = 24.434585 Lz       = 24.434585 Density  = 1.049894 
Volume   = 14588.643605 
---------------- Step  1740000 ----- CPU =   1080.0083 (sec) ----------------
Time     = 8700000.000000 Temp     = 213.104414 Press    = 899.239363 
PotEng   = -8.813703 KinEng   = 0.633983 Lx       = 24.427364 
Ly       = 24.427364 Lz       = 24.427364 Density  = 1.050826 
Volume   = 14575.712510 
---------------- Step  1750000 ----- CPU =   1085.9907 (sec) ----------------
Time     = 8750000.000000 Temp     = 219.621431 Press    = 1514.423267 
PotEng   = -8.897744 KinEng   = 0.653371 Lx       = 24.501749 
Ly       = 24.501749 Lz       = 24.501749 Density  = 1.041284 
Volume   = 14709.275621 
---------------- Step  1760000 ----- CPU =   1091.9952 (sec) ----------------
Time     = 8800000.000000 Temp     = 217.441666 Press    = 963.102094 
PotEng   = -8.873569 KinEng   = 0.646886 Lx       = 24.531278 
Ly       = 24.531278 Lz       = 24.531278 Density  = 1.037528 
Volume   = 14762.521317 
---------------- Step  1770000 ----- CPU =   1098.0576 (sec) ----------------
Time     = 8850000.000000 Temp     = 228.831110 Press    = 863.030460 
PotEng   = -8.759365 KinEng   = 0.680770 Lx       = 24.405849 
Ly       = 24.405849 Lz       = 24.405849 Density  = 1.053607 
Volume   = 14537.232982 
---------------- Step  1780000 ----- CPU =   1104.2984 (sec) ----------------
Time     = 8900000.000000 Temp     = 232.980968 Press    = 1610.811612 
PotEng   = -8.827821 KinEng   = 0.693116 Lx       = 24.326912 
Ly       = 24.326912 Lz       = 24.326912 Density  = 1.063897 
Volume   = 14396.633800 
---------------- Step  1790000 ----- CPU =   1110.3000 (sec) ----------------
Time     = 8950000.000000 Temp     = 238.755656 Press    = 506.923016 
PotEng   = -8.827462 KinEng   = 0.710295 Lx       = 24.429363 
Ly       = 24.429363 Lz       = 24.429363 Density  = 1.050568 
Volume   = 14579.291821 
---------------- Step  1800000 ----- CPU =   1116.5919 (sec) ----------------
Time     = 9000000.000000 Temp     = 226.281776 Press    = 519.271310 
PotEng   = -8.767903 KinEng   = 0.673186 Lx       = 24.658871 
Ly       = 24.658871 Lz       = 24.658871 Density  = 1.021506 
Volume   = 14994.071913 
---------------- Step  1810000 ----- CPU =   1122.9885 (sec) ----------------
Time     = 9050000.000000 Temp     = 221.796491 Press    = -459.917678 
PotEng   = -8.807862 KinEng   = 0.659842 Lx       = 24.345052 
Ly       = 24.345052 Lz       = 24.345052 Density  = 1.061520 
Volume   = 14428.864003 
---------------- Step  1820000 ----- CPU =   1129.1900 (sec) ----------------
Time     = 9100000.000000 Temp     = 214.591221 Press    = 1277.536824 
PotEng   = -8.791395 KinEng   = 0.638406 Lx       = 24.446955 
Ly       = 24.446955 Lz       = 24.446955 Density  = 1.048301 
Volume   = 14610.811539 
---------------- Step  1830000 ----- CPU =   1135.4662 (sec) ----------------
Time     = 9150000.000000 Temp     = 228.750195 Press    = 1213.776676 
PotEng   = -8.882099 KinEng   = 0.680529 Lx       = 24.412850 
Ly       = 24.412850 Lz       = 24.412850 Density  = 1.052701 
Volume   = 14549.746385 
---------------- Step  1840000 ----- CPU =   1141.6822 (sec) ----------------
Time     = 9200000.000000 Temp     = 233.364411 Press    = 1651.698800 
PotEng   = -8.914274 KinEng   = 0.694256 Lx       = 24.486493 
Ly       = 24.486493 Lz       = 24.486493 Density  = 1.043232 
Volume   = 14681.816537 
---------------- Step  1850000 ----- CPU =   1147.7774 (sec) ----------------
Time     = 9250000.000000 Temp     = 221.069786 Press    = 1227.273540 
PotEng   = -8.828921 KinEng   = 0.657680 Lx       = 24.512394 
Ly       = 24.512394 Lz       = 24.512394 Density  = 1.039928 
Volume   = 14728.454599 
---------------- Step  1860000 ----- CPU =   1153.5977 (sec) ----------------
Time     = 9300000.000000 Temp     = 243.677972 Press    = 894.401927 
PotEng   = -8.830917 KinEng   = 0.724939 Lx       = 24.471307 
Ly       = 24.471307 Lz       = 24.471307 Density  = 1.045175 
Volume   = 14654.515897 
---------------- Step  1870000 ----- CPU =   1159.7103 (sec) ----------------
Time     = 9350000.000000 Temp     = 226.215736 Press    = 456.439211 
PotEng   = -8.856696 KinEng   = 0.672989 Lx       = 24.498403 
Ly       = 24.498403 Lz       = 24.498403 Density  = 1.041711 
Volume   = 14703.248766 
---------------- Step  1880000 ----- CPU =   1165.9582 (sec) ----------------
Time     = 9400000.000000 Temp     = 216.866576 Press    = 757.635294 
PotEng   = -8.878323 KinEng   = 0.645175 Lx       = 24.611511 
Ly       = 24.611511 Lz       = 24.611511 Density  = 1.027415 
Volume   = 14907.843248 
---------------- Step  1890000 ----- CPU =   1172.0319 (sec) ----------------
Time     = 9450000.000000 Temp     = 231.952123 Press    = 1132.398439 
PotEng   = -8.865743 KinEng   = 0.690055 Lx       = 24.370992 
Ly       = 24.370992 Lz       = 24.370992 Density  = 1.058135 
Volume   = 14475.034677 
---------------- Step  1900000 ----- CPU =   1178.3255 (sec) ----------------
Time     = 9500000.000000 Temp     = 250.164185 Press    = 655.461857 
PotEng   = -8.867824 KinEng   = 0.744235 Lx       = 24.493685 
Ly       = 24.493685 Lz       = 24.493685 Density  = 1.042313 
Volume   = 14694.755493 
---------------- Step  1910000 ----- CPU =   1184.7476 (sec) ----------------
Time     = 9550000.000000 Temp     = 230.793361 Press    = -357.292655 
PotEng   = -8.793481 KinEng   = 0.686608 Lx       = 24.337259 
Ly       = 24.337259 Lz       = 24.337259 Density  = 1.062541 
Volume   = 14415.011441 
---------------- Step  1920000 ----- CPU =   1190.9058 (sec) ----------------
Time     = 9600000.000000 Temp     = 223.070939 Press    = 273.865337 
PotEng   = -8.915346 KinEng   = 0.663633 Lx       = 24.602176 
Ly       = 24.602176 Lz       = 24.602176 Density  = 1.028584 
Volume   = 14890.886641 
---------------- Step  1930000 ----- CPU =   1197.1706 (sec) ----------------
Time     = 9650000.000000 Temp     = 235.801700 Press    = 793.067292 
PotEng   = -8.789242 KinEng   = 0.701507 Lx       = 24.628376 
Ly       = 24.628376 Lz       = 24.628376 Density  = 1.025305 
Volume   = 14938.511738 
---------------- Step  1940000 ----- CPU =   1203.4874 (sec) ----------------
Time     = 9700000.000000 Temp     = 236.112356 Press    = 600.515415 
PotEng   = -8.885619 KinEng   = 0.702431 Lx       = 24.536708 
Ly       = 24.536708 Lz       = 24.536708 Density  = 1.036840 
Volume   = 14772.325472 
---------------- Step  1950000 ----- CPU =   1209.4667 (sec) ----------------
Time     = 9750000.000000 Temp     = 230.211131 Press    = 1185.883446 
PotEng   = -8.813982 KinEng   = 0.684875 Lx       = 24.473383 
Ly       = 24.473383 Lz       = 24.473383 Density  = 1.044909 
Volume   = 14658.245725 
---------------- Step  1960000 ----- CPU =   1215.8204 (sec) ----------------
Time     = 9800000.000000 Temp     = 217.852064 Press    = 533.983163 
PotEng   = -8.870179 KinEng   = 0.648107 Lx       = 24.514743 
Ly       = 24.514743 Lz       = 24.514743 Density  = 1.039629 
Volume   = 14732.688766 
---------------- Step  1970000 ----- CPU =   1221.9730 (sec) ----------------
Time     = 9850000.000000 Temp     = 233.389355 Press    = 59.960314 
PotEng   = -8.899351 KinEng   = 0.694331 Lx       = 24.524942 
Ly       = 24.524942 Lz       = 24.524942 Density  = 1.038333 
Volume   = 14751.084598 
---------------- Step  1980000 ----- CPU =   1228.1675 (sec) ----------------
Time     = 9900000.000000 Temp     = 235.220292 Press    = 1019.167207 
PotEng   = -8.828993 KinEng   = 0.699778 Lx       = 24.379194 
Ly       = 24.379194 Lz       = 24.379194 Density  = 1.057067 
Volume   = 14489.653920 
---------------- Step  1990000 ----- CPU =   1234.4886 (sec) ----------------
Time     = 9950000.000000 Temp     = 224.818272 Press    = 16.489736 
PotEng   = -8.839271 KinEng   = 0.668832 Lx       = 24.515131 
Ly       = 24.515131 Lz       = 24.515131 Density  = 1.039580 
Volume   = 14733.388990 
---------------- Step  2000000 ----- CPU =   1240.6985 (sec) ----------------
Time     = 10000000.000000 Temp     = 233.382599 Press    = 775.068088 
PotEng   = -8.888574 KinEng   = 0.694310 Lx       = 24.601944 
Ly       = 24.601944 Lz       = 24.601944 Density  = 1.028614 
Volume   = 14890.466151 
Loop time of 1240.7 on 6 procs for 2000000 steps with 512 atoms

Performance: 696.383 ns/day, 0.034 hours/ns, 1611.998 timesteps/s
100.0% CPU use with 6 MPI tasks x no OpenMP threads

MPI task timing breakdown:
Section |  min time  |  avg time  |  max time  |%varavg| %total
---------------------------------------------------------------
Pair    | 1010.9     | 1019.8     | 1027.6     |  18.5 | 82.19
Neigh   | 16.841     | 16.884     | 16.926     |   0.7 |  1.36
Comm    | 161.63     | 169.59     | 178.59     |  48.3 | 13.67
Output  | 0.0075724  | 0.014972   | 0.051748   |  13.4 |  0.00
Modify  | 27.111     | 28.128     | 28.83      |  11.7 |  2.27
Other   |            | 6.329      |            |       |  0.51

Nlocal:    85.3333 ave 88 max 82 min
Histogram: 1 1 0 0 0 1 1 0 0 2
Nghost:    465.167 ave 471 max 459 min
Histogram: 2 0 0 0 1 1 0 0 0 2
Neighs:    0 ave 0 max 0 min
Histogram: 6 0 0 0 0 0 0 0 0 0
FullNghs:  2072.33 ave 2145 max 1985 min
Histogram: 2 0 0 0 0 1 0 0 2 1

Total # of neighbors = 12434
Ave neighs/atom = 24.2852
Neighbor list builds = 96453
Dangerous builds = 0
#reset_timestep 0
#unfix 1  # Remove the fix (important!)

# ---- Custom dump ----
# Easier to analyze than LAMMP's log file

variable        engtot equal etotal
variable        utotal equal pe
variable        cellx equal lx
variable        kintemp equal temp
variable        virpress equal press
variable        massdensity equal density
variable 		volume equal vol

fix             thermodata all print 200 "${volume} ${massdensity}" file "Ref.density" screen no


# DCD trajectory (every 0.5 ps)
#dump            1 all dcd 5000 traj.dcd

# ----- Temperature/Pressure Controls -----
fix 1 all npt temp ${T} ${T} 100 iso ${P} ${P} 1000
fix 1 all npt temp 230 ${T} 100 iso ${P} ${P} 1000
fix 1 all npt temp 230 230 100 iso ${P} ${P} 1000
fix 1 all npt temp 230 230 100 iso 986.923 ${P} 1000
fix 1 all npt temp 230 230 100 iso 986.923 986.923 1000

run 2000000  # production 10 ns
Per MPI rank memory allocation (min/avg/max) = 2.941 | 2.942 | 2.942 Mbytes
---------------- Step  2000000 ----- CPU =      0.0000 (sec) ----------------
Time     = 10000000.000000 Temp     = 233.382599 Press    = 775.068088 
PotEng   = -8.888574 KinEng   = 0.694310 Lx       = 24.601944 
Ly       = 24.601944 Lz       = 24.601944 Density  = 1.028614 
Volume   = 14890.466151 
---------------- Step  2010000 ----- CPU =      6.1744 (sec) ----------------
Time     = 10050000.000000 Temp     = 225.459593 Press    = 1437.892802 
PotEng   = -8.797124 KinEng   = 0.670740 Lx       = 24.466733 
Ly       = 24.466733 Lz       = 24.466733 Density  = 1.045761 
Volume   = 14646.301011 
---------------- Step  2020000 ----- CPU =     12.3898 (sec) ----------------
Time     = 10100000.000000 Temp     = 234.210617 Press    = 1367.713527 
PotEng   = -8.871130 KinEng   = 0.696774 Lx       = 24.383996 
Ly       = 24.383996 Lz       = 24.383996 Density  = 1.056442 
Volume   = 14498.218984 
---------------- Step  2030000 ----- CPU =     18.8285 (sec) ----------------
Time     = 10150000.000000 Temp     = 231.590932 Press    = 1008.286952 
PotEng   = -8.880214 KinEng   = 0.688980 Lx       = 24.461993 
Ly       = 24.461993 Lz       = 24.461993 Density  = 1.046369 
Volume   = 14637.790879 
---------------- Step  2040000 ----- CPU =     24.8502 (sec) ----------------
Time     = 10200000.000000 Temp     = 229.403782 Press    = 1397.901378 
PotEng   = -8.919576 KinEng   = 0.682474 Lx       = 24.537149 
Ly       = 24.537149 Lz       = 24.537149 Density  = 1.036784 
Volume   = 14773.122752 
---------------- Step  2050000 ----- CPU =     31.1448 (sec) ----------------
Time     = 10250000.000000 Temp     = 229.451274 Press    = 1177.944545 
PotEng   = -8.861685 KinEng   = 0.682615 Lx       = 24.406730 
Ly       = 24.406730 Lz       = 24.406730 Density  = 1.053493 
Volume   = 14538.807834 
---------------- Step  2060000 ----- CPU =     37.5136 (sec) ----------------
Time     = 10300000.000000 Temp     = 235.856463 Press    = -538.762351 
PotEng   = -8.797842 KinEng   = 0.701670 Lx       = 24.405077 
Ly       = 24.405077 Lz       = 24.405077 Density  = 1.053707 
Volume   = 14535.853965 
---------------- Step  2070000 ----- CPU =     43.6794 (sec) ----------------
Time     = 10350000.000000 Temp     = 224.378901 Press    = 674.604690 
PotEng   = -8.864759 KinEng   = 0.667525 Lx       = 24.549062 
Ly       = 24.549062 Lz       = 24.549062 Density  = 1.035275 
Volume   = 14794.650175 
---------------- Step  2080000 ----- CPU =     49.6998 (sec) ----------------
Time     = 10400000.000000 Temp     = 228.313640 Press    = 1363.283041 
PotEng   = -8.837581 KinEng   = 0.679230 Lx       = 24.506046 
Ly       = 24.506046 Lz       = 24.506046 Density  = 1.040736 
Volume   = 14717.015629 
---------------- Step  2090000 ----- CPU =     55.9847 (sec) ----------------
Time     = 10450000.000000 Temp     = 233.042695 Press    = 1599.356649 
PotEng   = -8.864755 KinEng   = 0.693299 Lx       = 24.537637 
Ly       = 24.537637 Lz       = 24.537637 Density  = 1.036722 
Volume   = 14774.004160 
---------------- Step  2100000 ----- CPU =     62.1304 (sec) ----------------
Time     = 10500000.000000 Temp     = 227.434807 Press    = 1127.780552 
PotEng   = -8.782009 KinEng   = 0.676616 Lx       = 24.396189 
Ly       = 24.396189 Lz       = 24.396189 Density  = 1.054859 
Volume   = 14519.979093 
---------------- Step  2110000 ----- CPU =     68.4788 (sec) ----------------
Time     = 10550000.000000 Temp     = 223.305686 Press    = 617.028808 
PotEng   = -8.816325 KinEng   = 0.664332 Lx       = 24.496738 
Ly       = 24.496738 Lz       = 24.496738 Density  = 1.041923 
Volume   = 14700.252525 
---------------- Step  2120000 ----- CPU =     74.6778 (sec) ----------------
Time     = 10600000.000000 Temp     = 245.491090 Press    = 569.578077 
PotEng   = -8.829801 KinEng   = 0.730333 Lx       = 24.689194 
Ly       = 24.689194 Lz       = 24.689194 Density  = 1.017747 
Volume   = 15049.453835 
---------------- Step  2130000 ----- CPU =     80.8842 (sec) ----------------
Time     = 10650000.000000 Temp     = 220.396398 Press    = 2088.304391 
PotEng   = -8.766705 KinEng   = 0.655677 Lx       = 24.442328 
Ly       = 24.442328 Lz       = 24.442328 Density  = 1.048897 
Volume   = 14602.515717 
---------------- Step  2140000 ----- CPU =     87.0387 (sec) ----------------
Time     = 10700000.000000 Temp     = 226.760365 Press    = 2220.179399 
PotEng   = -8.932177 KinEng   = 0.674609 Lx       = 24.535525 
Ly       = 24.535525 Lz       = 24.535525 Density  = 1.036990 
Volume   = 14770.188641 
---------------- Step  2150000 ----- CPU =     93.1907 (sec) ----------------
Time     = 10750000.000000 Temp     = 235.647492 Press    = 1910.299727 
PotEng   = -8.822208 KinEng   = 0.701048 Lx       = 24.407166 
Ly       = 24.407166 Lz       = 24.407166 Density  = 1.053437 
Volume   = 14539.585942 
---------------- Step  2160000 ----- CPU =     99.3100 (sec) ----------------
Time     = 10800000.000000 Temp     = 241.228162 Press    = 849.359362 
PotEng   = -8.832091 KinEng   = 0.717651 Lx       = 24.374338 
Ly       = 24.374338 Lz       = 24.374338 Density  = 1.057699 
Volume   = 14480.997138 
---------------- Step  2170000 ----- CPU =    105.5752 (sec) ----------------
Time     = 10850000.000000 Temp     = 238.506096 Press    = 674.393836 
PotEng   = -8.846965 KinEng   = 0.709553 Lx       = 24.252472 
Ly       = 24.252472 Lz       = 24.252472 Density  = 1.073724 
Volume   = 14264.877314 
---------------- Step  2180000 ----- CPU =    111.8288 (sec) ----------------
Time     = 10900000.000000 Temp     = 239.998840 Press    = 1511.297905 
PotEng   = -8.808517 KinEng   = 0.713994 Lx       = 24.325950 
Ly       = 24.325950 Lz       = 24.325950 Density  = 1.064023 
Volume   = 14394.926308 
---------------- Step  2190000 ----- CPU =    117.8741 (sec) ----------------
Time     = 10950000.000000 Temp     = 238.829723 Press    = 2031.355821 
PotEng   = -8.845896 KinEng   = 0.710516 Lx       = 24.500623 
Ly       = 24.500623 Lz       = 24.500623 Density  = 1.041428 
Volume   = 14707.246391 
---------------- Step  2200000 ----- CPU =    123.9392 (sec) ----------------
Time     = 11000000.000000 Temp     = 233.671602 Press    = 1117.153649 
PotEng   = -8.858839 KinEng   = 0.695170 Lx       = 24.416554 
Ly       = 24.416554 Lz       = 24.416554 Density  = 1.052222 
Volume   = 14556.370188 
---------------- Step  2210000 ----- CPU =    130.0073 (sec) ----------------
Time     = 11050000.000000 Temp     = 230.248767 Press    = 1431.956934 
PotEng   = -8.806115 KinEng   = 0.684987 Lx       = 24.456526 
Ly       = 24.456526 Lz       = 24.456526 Density  = 1.047071 
Volume   = 14627.978854 
---------------- Step  2220000 ----- CPU =    136.0508 (sec) ----------------
Time     = 11100000.000000 Temp     = 231.679650 Press    = 1463.896904 
PotEng   = -8.851949 KinEng   = 0.689244 Lx       = 24.468642 
Ly       = 24.468642 Lz       = 24.468642 Density  = 1.045517 
Volume   = 14649.728876 
---------------- Step  2230000 ----- CPU =    142.1563 (sec) ----------------
Time     = 11150000.000000 Temp     = 216.956848 Press    = 769.157608 
PotEng   = -8.847480 KinEng   = 0.645444 Lx       = 24.507188 
Ly       = 24.507188 Lz       = 24.507188 Density  = 1.040591 
Volume   = 14719.072081 
---------------- Step  2240000 ----- CPU =    148.2793 (sec) ----------------
Time     = 11200000.000000 Temp     = 238.989109 Press    = 921.594887 
PotEng   = -8.858554 KinEng   = 0.710990 Lx       = 24.650076 
Ly       = 24.650076 Lz       = 24.650076 Density  = 1.022600 
Volume   = 14978.033046 
---------------- Step  2250000 ----- CPU =    154.4513 (sec) ----------------
Time     = 11250000.000000 Temp     = 234.510262 Press    = 1453.581554 
PotEng   = -8.889013 KinEng   = 0.697665 Lx       = 24.229903 
Ly       = 24.229903 Lz       = 24.229903 Density  = 1.076727 
Volume   = 14225.090684 
---------------- Step  2260000 ----- CPU =    160.8108 (sec) ----------------
Time     = 11300000.000000 Temp     = 231.631289 Press    = 1759.574685 
PotEng   = -8.851183 KinEng   = 0.689100 Lx       = 24.314125 
Ly       = 24.314125 Lz       = 24.314125 Density  = 1.065576 
Volume   = 14373.943820 
---------------- Step  2270000 ----- CPU =    166.9246 (sec) ----------------
Time     = 11350000.000000 Temp     = 232.860277 Press    = 1229.522736 
PotEng   = -8.863297 KinEng   = 0.692757 Lx       = 24.486382 
Ly       = 24.486382 Lz       = 24.486382 Density  = 1.043246 
Volume   = 14681.616545 
---------------- Step  2280000 ----- CPU =    172.9803 (sec) ----------------
Time     = 11400000.000000 Temp     = 217.633246 Press    = 577.840852 
PotEng   = -8.819421 KinEng   = 0.647456 Lx       = 24.432966 
Ly       = 24.432966 Lz       = 24.432966 Density  = 1.050103 
Volume   = 14585.743068 
---------------- Step  2290000 ----- CPU =    179.2565 (sec) ----------------
Time     = 11450000.000000 Temp     = 224.970049 Press    = 1625.906463 
PotEng   = -8.833401 KinEng   = 0.669283 Lx       = 24.259178 
Ly       = 24.259178 Lz       = 24.259178 Density  = 1.072833 
Volume   = 14276.712975 
---------------- Step  2300000 ----- CPU =    185.4612 (sec) ----------------
Time     = 11500000.000000 Temp     = 221.225621 Press    = 1126.510681 
PotEng   = -8.904968 KinEng   = 0.658144 Lx       = 24.500631 
Ly       = 24.500631 Lz       = 24.500631 Density  = 1.041427 
Volume   = 14707.261704 
---------------- Step  2310000 ----- CPU =    191.7822 (sec) ----------------
Time     = 11550000.000000 Temp     = 243.021633 Press    = -281.737423 
PotEng   = -8.827196 KinEng   = 0.722986 Lx       = 24.530653 
Ly       = 24.530653 Lz       = 24.530653 Density  = 1.037608 
Volume   = 14761.391771 
---------------- Step  2320000 ----- CPU =    198.0471 (sec) ----------------
Time     = 11600000.000000 Temp     = 231.555349 Press    = 708.347576 
PotEng   = -8.835933 KinEng   = 0.688874 Lx       = 24.435427 
Ly       = 24.435427 Lz       = 24.435427 Density  = 1.049786 
Volume   = 14590.151957 
---------------- Step  2330000 ----- CPU =    204.2530 (sec) ----------------
Time     = 11650000.000000 Temp     = 219.002605 Press    = 700.772995 
PotEng   = -8.838775 KinEng   = 0.651530 Lx       = 24.509995 
Ly       = 24.509995 Lz       = 24.509995 Density  = 1.040234 
Volume   = 14724.131110 
---------------- Step  2340000 ----- CPU =    210.7134 (sec) ----------------
Time     = 11700000.000000 Temp     = 219.234521 Press    = 762.888020 
PotEng   = -8.828997 KinEng   = 0.652220 Lx       = 24.540938 
Ly       = 24.540938 Lz       = 24.540938 Density  = 1.036304 
Volume   = 14779.967293 
---------------- Step  2350000 ----- CPU =    216.7336 (sec) ----------------
Time     = 11750000.000000 Temp     = 226.564844 Press    = 1973.583818 
PotEng   = -8.854705 KinEng   = 0.674028 Lx       = 24.329418 
Ly       = 24.329418 Lz       = 24.329418 Density  = 1.063568 
Volume   = 14401.083178 
---------------- Step  2360000 ----- CPU =    222.8818 (sec) ----------------
Time     = 11800000.000000 Temp     = 245.012935 Press    = 244.221874 
PotEng   = -8.904775 KinEng   = 0.728911 Lx       = 24.520989 
Ly       = 24.520989 Lz       = 24.520989 Density  = 1.038835 
Volume   = 14743.954190 
---------------- Step  2370000 ----- CPU =    228.9837 (sec) ----------------
Time     = 11850000.000000 Temp     = 229.919136 Press    = 1212.218812 
PotEng   = -8.803743 KinEng   = 0.684007 Lx       = 24.561097 
Ly       = 24.561097 Lz       = 24.561097 Density  = 1.033754 
Volume   = 14816.420669 
---------------- Step  2380000 ----- CPU =    235.4182 (sec) ----------------
Time     = 11900000.000000 Temp     = 216.756505 Press    = 603.844129 
PotEng   = -8.916961 KinEng   = 0.644848 Lx       = 24.581175 
Ly       = 24.581175 Lz       = 24.581175 Density  = 1.031223 
Volume   = 14852.786476 
---------------- Step  2390000 ----- CPU =    241.5218 (sec) ----------------
Time     = 11950000.000000 Temp     = 246.686606 Press    = 1625.157664 
PotEng   = -8.868653 KinEng   = 0.733890 Lx       = 24.405973 
Ly       = 24.405973 Lz       = 24.405973 Density  = 1.053591 
Volume   = 14537.455265 
---------------- Step  2400000 ----- CPU =    247.5767 (sec) ----------------
Time     = 12000000.000000 Temp     = 248.067952 Press    = 1233.511335 
PotEng   = -8.897993 KinEng   = 0.737999 Lx       = 24.543638 
Ly       = 24.543638 Lz       = 24.543638 Density  = 1.035962 
Volume   = 14784.845593 
---------------- Step  2410000 ----- CPU =    253.6309 (sec) ----------------
Time     = 12050000.000000 Temp     = 229.813149 Press    = 1706.508056 
PotEng   = -8.801965 KinEng   = 0.683691 Lx       = 24.529544 
Ly       = 24.529544 Lz       = 24.529544 Density  = 1.037748 
Volume   = 14759.390767 
---------------- Step  2420000 ----- CPU =    259.8753 (sec) ----------------
Time     = 12100000.000000 Temp     = 218.185658 Press    = -159.565380 
PotEng   = -8.897812 KinEng   = 0.649100 Lx       = 24.606744 
Ly       = 24.606744 Lz       = 24.606744 Density  = 1.028012 
Volume   = 14899.183284 
---------------- Step  2430000 ----- CPU =    265.9626 (sec) ----------------
Time     = 12150000.000000 Temp     = 228.879773 Press    = 259.461499 
PotEng   = -8.883609 KinEng   = 0.680915 Lx       = 24.419772 
Ly       = 24.419772 Lz       = 24.419772 Density  = 1.051806 
Volume   = 14562.127470 
---------------- Step  2440000 ----- CPU =    272.3821 (sec) ----------------
Time     = 12200000.000000 Temp     = 229.659568 Press    = 275.825031 
PotEng   = -8.815612 KinEng   = 0.683234 Lx       = 24.466003 
Ly       = 24.466003 Lz       = 24.466003 Density  = 1.045855 
Volume   = 14644.990242 
---------------- Step  2450000 ----- CPU =    278.8712 (sec) ----------------
Time     = 12250000.000000 Temp     = 223.591772 Press    = 2311.955804 
PotEng   = -8.897953 KinEng   = 0.665183 Lx       = 24.475883 
Ly       = 24.475883 Lz       = 24.475883 Density  = 1.044589 
Volume   = 14662.738714 
---------------- Step  2460000 ----- CPU =    285.1185 (sec) ----------------
Time     = 12300000.000000 Temp     = 232.122792 Press    = 1882.694072 
PotEng   = -8.849315 KinEng   = 0.690563 Lx       = 24.484079 
Ly       = 24.484079 Lz       = 24.484079 Density  = 1.043540 
Volume   = 14677.474545 
---------------- Step  2470000 ----- CPU =    291.4730 (sec) ----------------
Time     = 12350000.000000 Temp     = 236.978970 Press    = 614.995612 
PotEng   = -8.855216 KinEng   = 0.705010 Lx       = 24.432165 
Ly       = 24.432165 Lz       = 24.432165 Density  = 1.050206 
Volume   = 14584.309072 
---------------- Step  2480000 ----- CPU =    297.5978 (sec) ----------------
Time     = 12400000.000000 Temp     = 248.759850 Press    = 1059.054242 
PotEng   = -8.850348 KinEng   = 0.740058 Lx       = 24.444673 
Ly       = 24.444673 Lz       = 24.444673 Density  = 1.048595 
Volume   = 14606.719977 
---------------- Step  2490000 ----- CPU =    303.9115 (sec) ----------------
Time     = 12450000.000000 Temp     = 219.723292 Press    = 1367.770869 
PotEng   = -8.874515 KinEng   = 0.653674 Lx       = 24.630654 
Ly       = 24.630654 Lz       = 24.630654 Density  = 1.025021 
Volume   = 14942.656727 
---------------- Step  2500000 ----- CPU =    309.9586 (sec) ----------------
Time     = 12500000.000000 Temp     = 233.507623 Press    = 789.598392 
PotEng   = -8.840158 KinEng   = 0.694682 Lx       = 24.610443 
Ly       = 24.610443 Lz       = 24.610443 Density  = 1.027548 
Volume   = 14905.903253 
---------------- Step  2510000 ----- CPU =    316.0762 (sec) ----------------
Time     = 12550000.000000 Temp     = 220.836064 Press    = 1180.674645 
PotEng   = -8.802468 KinEng   = 0.656985 Lx       = 24.432579 
Ly       = 24.432579 Lz       = 24.432579 Density  = 1.050153 
Volume   = 14585.050850 
---------------- Step  2520000 ----- CPU =    322.4990 (sec) ----------------
Time     = 12600000.000000 Temp     = 242.310785 Press    = 81.634520 
PotEng   = -8.828255 KinEng   = 0.720872 Lx       = 24.548015 
[...]
PotEng   = -8.840695 KinEng   = 0.687163 Lx       = 24.467685 
Ly       = 24.467685 Lz       = 24.467685 Density  = 1.045639 
Volume   = 14648.009654 
---------------- Step  3390000 ----- CPU =    862.0433 (sec) ----------------
Time     = 16950000.000000 Temp     = 245.201639 Press    = 1637.331121 
PotEng   = -8.794359 KinEng   = 0.729472 Lx       = 24.292776 
Ly       = 24.292776 Lz       = 24.292776 Density  = 1.068388 
Volume   = 14336.113719 
---------------- Step  3400000 ----- CPU =    868.3931 (sec) ----------------
Time     = 17000000.000000 Temp     = 223.087530 Press    = 491.103347 
PotEng   = -8.862906 KinEng   = 0.663683 Lx       = 24.514899 
Ly       = 24.514899 Lz       = 24.514899 Density  = 1.039609 
Volume   = 14732.970058 
---------------- Step  3410000 ----- CPU =    874.7295 (sec) ----------------
Time     = 17050000.000000 Temp     = 236.614435 Press    = -470.333213 
PotEng   = -8.815992 KinEng   = 0.703925 Lx       = 24.407325 
Ly       = 24.407325 Lz       = 24.407325 Density  = 1.053416 
Volume   = 14539.871717 
---------------- Step  3420000 ----- CPU =    880.9998 (sec) ----------------
Time     = 17100000.000000 Temp     = 223.291163 Press    = 1579.576518 
PotEng   = -8.845213 KinEng   = 0.664289 Lx       = 24.438193 
Ly       = 24.438193 Lz       = 24.438193 Density  = 1.049429 
Volume   = 14595.106225 
---------------- Step  3430000 ----- CPU =    887.2044 (sec) ----------------
Time     = 17150000.000000 Temp     = 243.870596 Press    = 579.786338 
PotEng   = -8.834136 KinEng   = 0.725512 Lx       = 24.538524 
Ly       = 24.538524 Lz       = 24.538524 Density  = 1.036610 
Volume   = 14775.605893 
---------------- Step  3440000 ----- CPU =    893.2039 (sec) ----------------
Time     = 17200000.000000 Temp     = 238.130142 Press    = 1286.327248 
PotEng   = -8.851853 KinEng   = 0.708434 Lx       = 24.556356 
Ly       = 24.556356 Lz       = 24.556356 Density  = 1.034353 
Volume   = 14807.841373 
---------------- Step  3450000 ----- CPU =    899.2324 (sec) ----------------
Time     = 17250000.000000 Temp     = 215.963684 Press    = 1131.057821 
PotEng   = -8.846096 KinEng   = 0.642489 Lx       = 24.417782 
Ly       = 24.417782 Lz       = 24.417782 Density  = 1.052063 
Volume   = 14558.566831 
---------------- Step  3460000 ----- CPU =    905.4737 (sec) ----------------
Time     = 17300000.000000 Temp     = 212.999439 Press    = 176.675689 
PotEng   = -8.902095 KinEng   = 0.633671 Lx       = 24.484071 
Ly       = 24.484071 Lz       = 24.484071 Density  = 1.043541 
Volume   = 14677.460241 
---------------- Step  3470000 ----- CPU =    911.6020 (sec) ----------------
Time     = 17350000.000000 Temp     = 222.061334 Press    = 872.594488 
PotEng   = -8.838600 KinEng   = 0.660630 Lx       = 24.473045 
Ly       = 24.473045 Lz       = 24.473045 Density  = 1.044952 
Volume   = 14657.639698 
---------------- Step  3480000 ----- CPU =    917.7999 (sec) ----------------
Time     = 17400000.000000 Temp     = 226.958958 Press    = 772.632027 
PotEng   = -8.835192 KinEng   = 0.675200 Lx       = 24.401499 
Ly       = 24.401499 Lz       = 24.401499 Density  = 1.054171 
Volume   = 14529.460782 
---------------- Step  3490000 ----- CPU =    923.9272 (sec) ----------------
Time     = 17450000.000000 Temp     = 231.725472 Press    = 2825.249016 
PotEng   = -8.804598 KinEng   = 0.689381 Lx       = 24.344093 
Ly       = 24.344093 Lz       = 24.344093 Density  = 1.061646 
Volume   = 14427.159063 
---------------- Step  3500000 ----- CPU =    930.1579 (sec) ----------------
Time     = 17500000.000000 Temp     = 225.378598 Press    = 1494.857260 
PotEng   = -8.805994 KinEng   = 0.670499 Lx       = 24.473205 
Ly       = 24.473205 Lz       = 24.473205 Density  = 1.044932 
Volume   = 14657.927498 
---------------- Step  3510000 ----- CPU =    936.2881 (sec) ----------------
Time     = 17550000.000000 Temp     = 228.762886 Press    = 313.227857 
PotEng   = -8.792079 KinEng   = 0.680567 Lx       = 24.514248 
Ly       = 24.514248 Lz       = 24.514248 Density  = 1.039692 
Volume   = 14731.797750 
---------------- Step  3520000 ----- CPU =    942.5246 (sec) ----------------
Time     = 17600000.000000 Temp     = 235.290028 Press    = 760.836256 
PotEng   = -8.786359 KinEng   = 0.699985 Lx       = 24.486897 
Ly       = 24.486897 Lz       = 24.486897 Density  = 1.043180 
Volume   = 14682.542879 
---------------- Step  3530000 ----- CPU =    948.4843 (sec) ----------------
Time     = 17650000.000000 Temp     = 228.965235 Press    = 1425.391585 
PotEng   = -8.845676 KinEng   = 0.681169 Lx       = 24.465241 
Ly       = 24.465241 Lz       = 24.465241 Density  = 1.045953 
Volume   = 14643.620751 
---------------- Step  3540000 ----- CPU =    954.8375 (sec) ----------------
Time     = 17700000.000000 Temp     = 240.185757 Press    = 1007.851273 
PotEng   = -8.838972 KinEng   = 0.714550 Lx       = 24.521839 
Ly       = 24.521839 Lz       = 24.521839 Density  = 1.038727 
Volume   = 14745.487231 
---------------- Step  3550000 ----- CPU =    960.9300 (sec) ----------------
Time     = 17750000.000000 Temp     = 231.776507 Press    = 984.763602 
PotEng   = -8.821097 KinEng   = 0.689532 Lx       = 24.332455 
Ly       = 24.332455 Lz       = 24.332455 Density  = 1.063170 
Volume   = 14406.476054 
---------------- Step  3560000 ----- CPU =    967.1931 (sec) ----------------
Time     = 17800000.000000 Temp     = 233.080266 Press    = 1748.256326 
PotEng   = -8.914712 KinEng   = 0.693411 Lx       = 24.393297 
Ly       = 24.393297 Lz       = 24.393297 Density  = 1.055235 
Volume   = 14514.816056 
---------------- Step  3570000 ----- CPU =    973.2347 (sec) ----------------
Time     = 17850000.000000 Temp     = 229.737850 Press    = 196.343021 
PotEng   = -8.838739 KinEng   = 0.683467 Lx       = 24.386773 
Ly       = 24.386773 Lz       = 24.386773 Density  = 1.056082 
Volume   = 14503.172912 
---------------- Step  3580000 ----- CPU =    979.4555 (sec) ----------------
Time     = 17900000.000000 Temp     = 218.958701 Press    = 3.994006 
PotEng   = -8.784542 KinEng   = 0.651400 Lx       = 24.645591 
Ly       = 24.645591 Lz       = 24.645591 Density  = 1.023158 
Volume   = 14969.859931 
---------------- Step  3590000 ----- CPU =    985.6943 (sec) ----------------
Time     = 17950000.000000 Temp     = 234.854386 Press    = 547.132166 
PotEng   = -8.822639 KinEng   = 0.698689 Lx       = 24.459649 
Ly       = 24.459649 Lz       = 24.459649 Density  = 1.046670 
Volume   = 14633.581906 
---------------- Step  3600000 ----- CPU =    992.1359 (sec) ----------------
Time     = 18000000.000000 Temp     = 243.302371 Press    = 328.953244 
PotEng   = -8.873952 KinEng   = 0.723822 Lx       = 24.439137 
Ly       = 24.439137 Lz       = 24.439137 Density  = 1.049308 
Volume   = 14596.798367 
---------------- Step  3610000 ----- CPU =    998.3957 (sec) ----------------
Time     = 18050000.000000 Temp     = 239.424367 Press    = 1673.668595 
PotEng   = -8.864189 KinEng   = 0.712285 Lx       = 24.439279 
Ly       = 24.439279 Lz       = 24.439279 Density  = 1.049290 
Volume   = 14597.052614 
---------------- Step  3620000 ----- CPU =   1004.5782 (sec) ----------------
Time     = 18100000.000000 Temp     = 220.948185 Press    = 935.065142 
PotEng   = -8.865727 KinEng   = 0.657318 Lx       = 24.389447 
Ly       = 24.389447 Lz       = 24.389447 Density  = 1.055734 
Volume   = 14507.944310 
---------------- Step  3630000 ----- CPU =   1011.0468 (sec) ----------------
Time     = 18150000.000000 Temp     = 231.705431 Press    = 391.616253 
PotEng   = -8.804515 KinEng   = 0.689321 Lx       = 24.431355 
Ly       = 24.431355 Lz       = 24.431355 Density  = 1.050311 
Volume   = 14582.857926 
---------------- Step  3640000 ----- CPU =   1017.2807 (sec) ----------------
Time     = 18200000.000000 Temp     = 220.331221 Press    = 270.383740 
PotEng   = -8.852275 KinEng   = 0.655483 Lx       = 24.533497 
Ly       = 24.533497 Lz       = 24.533497 Density  = 1.037247 
Volume   = 14766.527157 
---------------- Step  3650000 ----- CPU =   1023.4434 (sec) ----------------
Time     = 18250000.000000 Temp     = 224.915273 Press    = 538.847676 
PotEng   = -8.942229 KinEng   = 0.669120 Lx       = 24.585200 
Ly       = 24.585200 Lz       = 24.585200 Density  = 1.030717 
Volume   = 14860.082280 
---------------- Step  3660000 ----- CPU =   1029.7670 (sec) ----------------
Time     = 18300000.000000 Temp     = 234.854575 Press    = 217.095480 
PotEng   = -8.834401 KinEng   = 0.698690 Lx       = 24.537633 
Ly       = 24.537633 Lz       = 24.537633 Density  = 1.036722 
Volume   = 14773.997115 
---------------- Step  3670000 ----- CPU =   1036.0101 (sec) ----------------
Time     = 18350000.000000 Temp     = 238.644479 Press    = 1183.276933 
PotEng   = -8.895949 KinEng   = 0.709964 Lx       = 24.519428 
Ly       = 24.519428 Lz       = 24.519428 Density  = 1.039033 
Volume   = 14741.137035 
---------------- Step  3680000 ----- CPU =   1042.2194 (sec) ----------------
Time     = 18400000.000000 Temp     = 234.923173 Press    = 1330.185353 
PotEng   = -8.926926 KinEng   = 0.698894 Lx       = 24.509922 
Ly       = 24.509922 Lz       = 24.509922 Density  = 1.040243 
Volume   = 14723.999456 
---------------- Step  3690000 ----- CPU =   1048.3564 (sec) ----------------
Time     = 18450000.000000 Temp     = 233.922603 Press    = 1133.348889 
PotEng   = -8.880679 KinEng   = 0.695917 Lx       = 24.643515 
Ly       = 24.643515 Lz       = 24.643515 Density  = 1.023417 
Volume   = 14966.076604 
---------------- Step  3700000 ----- CPU =   1054.3447 (sec) ----------------
Time     = 18500000.000000 Temp     = 236.747515 Press    = 1649.253064 
PotEng   = -8.855175 KinEng   = 0.704321 Lx       = 24.520127 
Ly       = 24.520127 Lz       = 24.520127 Density  = 1.038945 
Volume   = 14742.398231 
---------------- Step  3710000 ----- CPU =   1060.4282 (sec) ----------------
Time     = 18550000.000000 Temp     = 246.212982 Press    = 2856.219354 
PotEng   = -8.842678 KinEng   = 0.732481 Lx       = 24.409855 
Ly       = 24.409855 Lz       = 24.409855 Density  = 1.053089 
Volume   = 14544.392304 
---------------- Step  3720000 ----- CPU =   1066.5503 (sec) ----------------
Time     = 18600000.000000 Temp     = 221.346064 Press    = 883.753077 
PotEng   = -8.855055 KinEng   = 0.658502 Lx       = 24.578735 
Ly       = 24.578735 Lz       = 24.578735 Density  = 1.031530 
Volume   = 14848.363677 
---------------- Step  3730000 ----- CPU =   1072.7244 (sec) ----------------
Time     = 18650000.000000 Temp     = 235.071183 Press    = 844.314739 
PotEng   = -8.858819 KinEng   = 0.699334 Lx       = 24.667622 
Ly       = 24.667622 Lz       = 24.667622 Density  = 1.020419 
Volume   = 15010.040261 
---------------- Step  3740000 ----- CPU =   1078.8725 (sec) ----------------
Time     = 18700000.000000 Temp     = 217.667116 Press    = 847.471814 
PotEng   = -8.880140 KinEng   = 0.647557 Lx       = 24.664343 
Ly       = 24.664343 Lz       = 24.664343 Density  = 1.020826 
Volume   = 15004.055955 
---------------- Step  3750000 ----- CPU =   1085.1559 (sec) ----------------
Time     = 18750000.000000 Temp     = 232.762553 Press    = 810.840548 
PotEng   = -8.839964 KinEng   = 0.692466 Lx       = 24.514948 
Ly       = 24.514948 Lz       = 24.514948 Density  = 1.039603 
Volume   = 14733.058167 
---------------- Step  3760000 ----- CPU =   1091.4697 (sec) ----------------
Time     = 18800000.000000 Temp     = 238.662360 Press    = 896.813111 
PotEng   = -8.879217 KinEng   = 0.710018 Lx       = 24.453220 
Ly       = 24.453220 Lz       = 24.453220 Density  = 1.047496 
Volume   = 14622.046179 
---------------- Step  3770000 ----- CPU =   1097.7753 (sec) ----------------
Time     = 18850000.000000 Temp     = 229.903547 Press    = 631.873551 
PotEng   = -8.898067 KinEng   = 0.683960 Lx       = 24.597347 
Ly       = 24.597347 Lz       = 24.597347 Density  = 1.029190 
Volume   = 14882.120924 
---------------- Step  3780000 ----- CPU =   1103.7749 (sec) ----------------
Time     = 18900000.000000 Temp     = 227.719575 Press    = 785.640420 
PotEng   = -8.788857 KinEng   = 0.677463 Lx       = 24.512789 
Ly       = 24.512789 Lz       = 24.512789 Density  = 1.039878 
Volume   = 14729.167086 
---------------- Step  3790000 ----- CPU =   1110.0832 (sec) ----------------
Time     = 18950000.000000 Temp     = 230.778301 Press    = 1776.218353 
PotEng   = -8.830566 KinEng   = 0.686563 Lx       = 24.407364 
Ly       = 24.407364 Lz       = 24.407364 Density  = 1.053411 
Volume   = 14539.940802 
---------------- Step  3800000 ----- CPU =   1116.2612 (sec) ----------------
Time     = 19000000.000000 Temp     = 226.224092 Press    = 1705.981484 
PotEng   = -8.809700 KinEng   = 0.673014 Lx       = 24.386341 
Ly       = 24.386341 Lz       = 24.386341 Density  = 1.056138 
Volume   = 14502.402039 
---------------- Step  3810000 ----- CPU =   1122.5096 (sec) ----------------
Time     = 19050000.000000 Temp     = 244.191681 Press    = 1119.579122 
PotEng   = -8.855126 KinEng   = 0.726467 Lx       = 24.520403 
Ly       = 24.520403 Lz       = 24.520403 Density  = 1.038909 
Volume   = 14742.896800 
---------------- Step  3820000 ----- CPU =   1128.7928 (sec) ----------------
Time     = 19100000.000000 Temp     = 221.787131 Press    = 838.544895 
PotEng   = -8.805184 KinEng   = 0.659814 Lx       = 24.465401 
Ly       = 24.465401 Lz       = 24.465401 Density  = 1.045932 
Volume   = 14643.907917 
---------------- Step  3830000 ----- CPU =   1135.0742 (sec) ----------------
Time     = 19150000.000000 Temp     = 230.905127 Press    = 1370.082655 
PotEng   = -8.853646 KinEng   = 0.686940 Lx       = 24.312639 
Ly       = 24.312639 Lz       = 24.312639 Density  = 1.065772 
Volume   = 14371.307901 
---------------- Step  3840000 ----- CPU =   1141.3705 (sec) ----------------
Time     = 19200000.000000 Temp     = 224.773268 Press    = -397.455372 
PotEng   = -8.825551 KinEng   = 0.668698 Lx       = 24.415997 
Ly       = 24.415997 Lz       = 24.415997 Density  = 1.052294 
Volume   = 14555.375382 
---------------- Step  3850000 ----- CPU =   1147.6607 (sec) ----------------
Time     = 19250000.000000 Temp     = 232.622351 Press    = 577.055233 
PotEng   = -8.836998 KinEng   = 0.692049 Lx       = 24.518767 
Ly       = 24.518767 Lz       = 24.518767 Density  = 1.039117 
Volume   = 14739.945867 
---------------- Step  3860000 ----- CPU =   1153.9044 (sec) ----------------
Time     = 19300000.000000 Temp     = 215.264589 Press    = 127.454166 
PotEng   = -8.836946 KinEng   = 0.640410 Lx       = 24.518032 
Ly       = 24.518032 Lz       = 24.518032 Density  = 1.039211 
Volume   = 14738.620466 
---------------- Step  3870000 ----- CPU =   1160.2358 (sec) ----------------
Time     = 19350000.000000 Temp     = 224.428815 Press    = 432.012985 
PotEng   = -8.880565 KinEng   = 0.667673 Lx       = 24.576167 
Ly       = 24.576167 Lz       = 24.576167 Density  = 1.031854 
Volume   = 14843.710260 
---------------- Step  3880000 ----- CPU =   1166.3591 (sec) ----------------
Time     = 19400000.000000 Temp     = 229.994104 Press    = 1031.344658 
PotEng   = -8.864826 KinEng   = 0.684230 Lx       = 24.378135 
Ly       = 24.378135 Lz       = 24.378135 Density  = 1.057205 
Volume   = 14487.766692 
---------------- Step  3890000 ----- CPU =   1172.7045 (sec) ----------------
Time     = 19450000.000000 Temp     = 219.655757 Press    = 113.790131 
PotEng   = -8.851773 KinEng   = 0.653473 Lx       = 24.568176 
Ly       = 24.568176 Lz       = 24.568176 Density  = 1.032861 
Volume   = 14829.235105 
---------------- Step  3900000 ----- CPU =   1178.7169 (sec) ----------------
Time     = 19500000.000000 Temp     = 227.284530 Press    = 70.698472 
PotEng   = -8.852730 KinEng   = 0.676169 Lx       = 24.644910 
Ly       = 24.644910 Lz       = 24.644910 Density  = 1.023243 
Volume   = 14968.618294 
---------------- Step  3910000 ----- CPU =   1184.7356 (sec) ----------------
Time     = 19550000.000000 Temp     = 226.305416 Press    = 497.983650 
PotEng   = -8.869685 KinEng   = 0.673256 Lx       = 24.499545 
Ly       = 24.499545 Lz       = 24.499545 Density  = 1.041565 
Volume   = 14705.306500 
---------------- Step  3920000 ----- CPU =   1190.9864 (sec) ----------------
Time     = 19600000.000000 Temp     = 232.788245 Press    = -183.943937 
PotEng   = -8.855866 KinEng   = 0.692542 Lx       = 24.502652 
Ly       = 24.502652 Lz       = 24.502652 Density  = 1.041169 
Volume   = 14710.901801 
---------------- Step  3930000 ----- CPU =   1196.9967 (sec) ----------------
Time     = 19650000.000000 Temp     = 226.223540 Press    = 920.501642 
PotEng   = -8.899265 KinEng   = 0.673012 Lx       = 24.681611 
Ly       = 24.681611 Lz       = 24.681611 Density  = 1.018685 
Volume   = 15035.592027 
---------------- Step  3940000 ----- CPU =   1203.1444 (sec) ----------------
Time     = 19700000.000000 Temp     = 228.714043 Press    = -793.268950 
PotEng   = -8.867530 KinEng   = 0.680422 Lx       = 24.659835 
Ly       = 24.659835 Lz       = 24.659835 Density  = 1.021386 
Volume   = 14995.829941 
---------------- Step  3950000 ----- CPU =   1209.3202 (sec) ----------------
Time     = 19750000.000000 Temp     = 231.383389 Press    = 1326.934963 
PotEng   = -8.815076 KinEng   = 0.688363 Lx       = 24.561016 
Ly       = 24.561016 Lz       = 24.561016 Density  = 1.033764 
Volume   = 14816.273329 
---------------- Step  3960000 ----- CPU =   1215.5740 (sec) ----------------
Time     = 19800000.000000 Temp     = 222.205813 Press    = 940.505566 
PotEng   = -8.864479 KinEng   = 0.661060 Lx       = 24.490015 
Ly       = 24.490015 Lz       = 24.490015 Density  = 1.042782 
Volume   = 14688.151790 
---------------- Step  3970000 ----- CPU =   1221.6821 (sec) ----------------
Time     = 19850000.000000 Temp     = 238.783168 Press    = 739.323393 
PotEng   = -8.841594 KinEng   = 0.710377 Lx       = 24.434666 
Ly       = 24.434666 Lz       = 24.434666 Density  = 1.049884 
Volume   = 14588.787934 
---------------- Step  3980000 ----- CPU =   1228.1444 (sec) ----------------
Time     = 19900000.000000 Temp     = 231.589794 Press    = 1489.240613 
PotEng   = -8.766975 KinEng   = 0.688977 Lx       = 24.510856 
Ly       = 24.510856 Lz       = 24.510856 Density  = 1.040124 
Volume   = 14725.682708 
---------------- Step  3990000 ----- CPU =   1234.5504 (sec) ----------------
Time     = 19950000.000000 Temp     = 233.151554 Press    = 362.566625 
PotEng   = -8.922851 KinEng   = 0.693623 Lx       = 24.417632 
Ly       = 24.417632 Lz       = 24.417632 Density  = 1.052083 
Volume   = 14558.299034 
---------------- Step  4000000 ----- CPU =   1240.7102 (sec) ----------------
Time     = 20000000.000000 Temp     = 221.624391 Press    = 1406.556586 
PotEng   = -8.897764 KinEng   = 0.659330 Lx       = 24.510782 
Ly       = 24.510782 Lz       = 24.510782 Density  = 1.040133 
Volume   = 14725.549142 
Loop time of 1240.71 on 6 procs for 2000000 steps with 512 atoms

Performance: 696.376 ns/day, 0.034 hours/ns, 1611.983 timesteps/s
100.0% CPU use with 6 MPI tasks x no OpenMP threads

MPI task timing breakdown:
Section |  min time  |  avg time  |  max time  |%varavg| %total
---------------------------------------------------------------
Pair    | 1009.6     | 1019.8     | 1025.3     |  17.7 | 82.19
Neigh   | 16.861     | 16.889     | 16.923     |   0.5 |  1.36
Comm    | 163.46     | 169.09     | 179.41     |  44.2 | 13.63
Output  | 0.0087759  | 0.015169   | 0.047069   |  11.6 |  0.00
Modify  | 27.72      | 28.719     | 29.351     |  11.0 |  2.31
Other   |            | 6.229      |            |       |  0.50

Nlocal:    85.3333 ave 94 max 79 min
Histogram: 1 0 1 2 0 0 1 0 0 1
Nghost:    473.333 ave 482 max 467 min
Histogram: 2 0 1 0 1 0 0 1 0 1
Neighs:    0 ave 0 max 0 min
Histogram: 6 0 0 0 0 0 0 0 0 0
FullNghs:  2092.33 ave 2308 max 1915 min
Histogram: 1 0 0 3 0 1 0 0 0 1

Total # of neighbors = 12554
Ave neighs/atom = 24.5195
Neighbor list builds = 96491
Dangerous builds = 0

write_data data.final
Total wall time: 0:41:21
