LAMMPS data file via write_data, version 4 Jan 2019, timestep = 1000000

512 atoms
1 atom types

2.6889202553466163e-02 2.4808110797452034e+01 xlo xhi
2.6889202553466163e-02 2.4808110797452034e+01 ylo yhi
2.6889202553466163e-02 2.4808110797452034e+01 zlo zhi

Masses

1 18.0153

Atoms # atomic

449 1 5.6574680035626290e+00 6.8886736925485819e+00 1.1756215324217198e+01 -55 69 27
50 1 1.1497392362488029e+01 9.2091533540067161e+00 2.9919540502988586e+00 12 29 -32
254 1 1.0978598761278313e+00 6.1197779320084322e+00 7.8395281562270656e+00 43 91 35
339 1 1.1318646147733725e+01 9.5842205087486292e+00 1.0606471660754448e+01 32 43 0
19 1 7.4515534762653868e+00 7.8854312435563987e+00 9.8549432455020280e+00 8 59 72
135 1 1.0129298366794496e+01 8.3171411628967604e+00 8.2351134057208348e+00 0 48 -63
103 1 1.1348702982461175e+01 1.5266681218307134e+00 7.2400075271257478e+00 -18 36 -46
333 1 3.1920528782722535e+00 6.5608117296353283e+00 1.1065538203594997e+01 15 33 30
251 1 7.2411024664331496e+00 2.3989542873332952e+00 9.3023087957950801e-01 -49 28 -46
197 1 5.6288400654867932e+00 1.0712897767857825e+01 2.5824570139176988e+00 11 39 44
48 1 1.2179790825675484e+01 7.8716959345621857e+00 6.3266115711782449e+00 15 -8 33
296 1 1.3535408286513921e+00 2.3350870077737422e+00 6.6260800408857126e+00 -40 -99 58
428 1 9.3093196185775486e+00 3.5906456801555935e+00 7.3665353356209602e+00 59 -8 -7
58 1 5.0428563835286706e+00 5.4947680273393766e+00 2.9220958122533687e+00 8 -7 -3
163 1 1.2267240797601897e+01 2.8141625507985966e+00 1.5931359751238106e+00 -37 -62 -1
209 1 9.8539524929950399e+00 9.9787390811821730e+00 5.2837234229420815e-01 2 5 -38
10 1 6.5935819284070387e+00 1.0308499498147764e+01 1.1325668400167572e+01 -85 60 -16
493 1 9.8948187759215822e-02 4.6854379439357237e+00 5.5146282344805586e+00 -55 95 46
314 1 6.9542224151392329e+00 1.3605679583947019e+00 1.1636972651352488e+01 -15 25 -10
204 1 5.6906663989545603e+00 3.9553769322606835e+00 5.4358452362248002e+00 13 -19 -178
456 1 4.7131237958670305e+00 2.3061178232861068e+00 1.6750764309136741e+00 -24 -34 8
18 1 1.3795752132784529e+00 2.2736702394918638e+00 2.0605762321696903e+00 60 54 52
331 1 8.8856591846418596e+00 9.9023428012267551e+00 3.1581848920335407e+00 25 11 -15
379 1 4.8081075790928391e+00 1.1514760920626136e+01 8.3168643775207283e+00 133 -15 63
319 1 7.4162835705219834e+00 6.1473273874019760e+00 7.5408750811232572e+00 -35 -8 48
113 1 8.0975007671877588e+00 4.9009843819861167e+00 1.0061441133484690e+00 -44 31 93
79 1 3.2948588885583971e+00 2.3940828424909719e-01 8.5689220689833761e+00 -8 -87 102
474 1 2.3862710209084614e+00 5.2786004725841860e+00 3.8532060995804098e+00 -11 -52 -37
387 1 8.3585946760926984e+00 1.5360446550126643e+00 3.5951452789754765e+00 81 -25 124
140 1 7.4269252814583986e+00 1.0042186107546902e+01 8.0730466575172848e+00 -57 24 -8
277 1 5.5160748152618071e+00 8.2896292410002879e+00 6.5938485968622160e+00 37 6 105
310 1 1.0674605715576126e+01 5.7223438530574882e+00 8.8855897855016686e+00 -8 -5 10
468 1 4.8505712218065949e-01 9.0106051322685765e+00 7.9995731810973467e+00 66 -1 -49
391 1 1.0208218236431009e+01 1.2313764568047240e+01 1.1278125485170534e+01 -81 -25 -9
414 1 7.2609689706171487e-01 6.4712127725616257e+00 1.7355792530556993e+00 104 13 54
67 1 3.5455290556963406e+00 1.0025742042199090e+01 1.0517245458018499e+01 -28 -83 -41
426 1 4.1796628460385863e+00 1.0496549504045291e+01 3.4136139714049513e-01 93 -15 68
44 1 9.3106619969714455e+00 3.9355504715563301e+00 4.5413611642607474e+00 -18 -39 90
75 1 8.4442201875879821e+00 6.2866067973580106e+00 3.3133179673302360e+00 11 37 2
234 1 1.1335985041866747e+01 6.1484852803191750e+00 4.4919813277025780e+00 77 -13 20
160 1 3.1092618231820892e+00 8.1459024103327931e+00 8.3573237333573100e+00 -13 41 41
410 1 5.6427094297050875e+00 1.0688804392393600e+00 4.3933545864197860e+00 15 138 4
272 1 7.0544754898772977e-01 1.2200428596297082e+00 9.2824793346227477e+00 -26 9 116
77 1 7.9143532993248646e+00 1.2366563710982646e+01 9.9285594270689241e+00 45 -27 13
374 1 4.7096590098911131e+00 3.0293323349391152e+00 1.0526524491496579e+01 -8 35 1
239 1 3.5175704362762628e+00 5.8064866157285824e+00 6.4886505244003692e+00 52 -17 17
124 1 6.3532941001126253e-01 9.4719355794406255e+00 1.1044908495641977e+01 -53 163 -31
472 1 2.1671731066727076e+00 4.0913269593526689e+00 9.7821199777171319e+00 24 -22 72
403 1 1.3579847576105069e+00 9.3758197195994004e+00 5.3459810767964351e+00 -70 57 8
293 1 8.4370168625088855e+00 1.7443736962115830e+00 9.3476034591899442e+00 8 124 49
11 1 9.2918112207295760e+00 3.3942527851055084e+00 1.1848046227816230e+01 14 74 -36
446 1 6.6366525918624415e+00 8.4527265169563641e+00 3.9103074251478427e+00 23 29 -14
13 1 3.7029309196776592e+00 7.8200008890881829e+00 4.3602967404522728e+00 130 -9 69
462 1 6.2089119632438114e+00 3.7635143617405316e+00 8.1084578863332304e+00 -64 11 33
511 1 3.1245690394934176e+00 2.6791163273374599e+00 4.3519913277022386e+00 36 6 93
269 1 1.0979350931274400e+01 5.6678907966410330e+00 1.1708503890854304e+01 18 -30 4
436 1 2.5799945389818135e+00 1.1617575414031498e+01 6.3444303217241869e+00 45 68 14
246 1 2.9057561549932878e+00 4.5620505530775644e+00 1.1027207813072781e+00 78 60 105
276 1 1.1847480147434412e+01 6.4749035392148739e+00 1.4351772923958594e+00 34 165 -35
263 1 6.5181005517074686e+00 7.4937562890463765e+00 1.0822066308542631e+00 20 136 5
347 1 6.1103463079901754e+00 6.5190503154694568e-01 7.6699555938105863e+00 -117 -3 2
198 1 9.3441917493842244e+00 7.9830145335505645e+00 1.1842469707649974e+01 -32 49 13
287 1 1.2274107565701183e+01 2.5900896649020440e+00 4.5823044209762545e+00 -18 -8 -4
301 1 1.2102138397534633e+01 2.1378902991417412e-01 3.0435396571796871e+00 108 30 27
117 1 3.4645969790806030e+00 1.2219345677413427e+01 3.7143921871232317e+00 53 54 99
224 1 8.4325382255259367e+00 1.2280814683988789e+01 6.6296217797711545e+00 54 -88 4
267 1 7.5982509556340139e+00 1.1810833199154617e+01 5.1707038242380232e-01 -94 61 -58
467 1 1.8070552312707766e+00 8.6786038790668965e+00 4.1604783137707108e-01 -59 93 47
361 1 1.1314730122042642e+00 2.4635629782658230e+00 2.0285775620833792e+01 -59 112 -3
24 1 7.4786747811195058e+00 5.5525086787754463e-01 2.3424965536445658e+01 23 -54 65
210 1 6.3426015254584458e+00 9.4301408665496069e+00 1.9593401443527000e+01 -3 -6 50
288 1 4.1765492947545360e+00 4.6056561890035237e+00 1.7532457337508148e+01 -62 -25 -84
354 1 5.2457614406274429e+00 4.8630423397526501e+00 2.2505035165509646e+01 6 56 16
118 1 9.9233036296910466e+00 8.0967850764433056e+00 1.6947859592210119e+01 -26 135 -77
51 1 3.9939918288808123e+00 6.5315848741749196e+00 2.4528164423773330e+01 42 -1 -36
129 1 9.0350861489390670e+00 2.4136310564755012e+00 1.7474923365773211e+01 -42 -37 -84
358 1 9.9388826582482697e+00 6.0349058860225746e+00 1.8951887281686108e+01 -27 90 39
76 1 7.7630925386241625e+00 5.5274149419649268e+00 2.2832694349302773e+01 26 43 11
366 1 8.1911839025829902e+00 8.3533632544853358e+00 2.3690992542304592e+01 154 -3 -51
312 1 1.4774610719230807e-01 1.0330300276301820e+01 2.0497038881457428e+01 -3 26 19
141 1 5.5675277640276288e+00 4.7645514217771607e+00 1.9843966260145685e+01 91 72 -4
143 1 3.2391288904900208e+00 8.0096466759610863e+00 1.5290348625827056e+01 34 7 1
450 1 3.1607604260319824e+00 1.1491577434563087e+00 2.1827768231429662e+01 115 -81 25
257 1 5.8460820119649615e+00 8.8724750328413959e-01 1.7188042611695298e+01 -22 14 61
20 1 9.6131112935288083e+00 2.1441738896800109e+00 2.2783408793387590e+01 123 31 28
231 1 8.0724973547811540e+00 9.9312901767640831e+00 1.3794721292274000e+01 -43 14 37
392 1 5.6692682762915947e+00 1.1780077418174891e+01 1.8105678089772482e+01 17 21 -59
54 1 1.0402164409926916e+01 2.0581999827926336e+00 1.9907700950716197e+01 -4 13 37
488 1 7.0766444480304136e+00 6.7117829805718126e+00 1.8775671832344020e+01 -24 -17 32
300 1 1.0797117071496848e+01 1.6285304492864139e+00 1.3316609461417089e+01 -75 61 31
162 1 1.9204838701537397e-01 1.9861848069036978e+00 1.5389139224907385e+01 -41 6 4
359 1 9.7010513676422576e+00 1.0554734633260361e+01 1.7667731830188529e+01 -40 52 8
229 1 3.7262511840648589e+00 8.2228343311013496e+00 1.9592357864858133e+01 47 24 27
262 1 1.8059709784232922e+00 8.8446431821910354e-01 1.3263602167861833e+01 13 55 -45
444 1 7.0491540916341799e+00 2.2838959588143486e+00 1.9419939505847360e+01 4 -28 14
464 1 4.0604291715736478e+00 1.1906554288171249e+01 2.2798998866224490e+01 15 28 -26
25 1 8.4141406073967495e+00 7.3494746600513645e+00 1.4991429462296930e+01 64 -73 -43
495 1 7.7164494909744192e+00 1.1833823384146477e+01 1.6174527002039547e+01 -29 13 -58
298 1 1.0366680669848973e+01 1.1458907627903692e+01 2.0460139598901304e+01 4 35 2
233 1 4.4943047882380123e+00 1.0560184815353121e+01 1.3324490275751600e+01 -19 -27 -36
368 1 4.2493990624576119e+00 2.4644030729415496e+00 1.3781717533503743e+01 40 -36 42
154 1 1.1281550056744440e+01 8.0447682600892527e+00 2.4084412615927548e+01 108 -41 -1
225 1 1.1719877770776712e+01 1.1011513566876953e+01 1.4736843089292767e+01 22 76 19
47 1 3.8276978079770391e-01 1.1148826016925074e+01 1.3411161604035238e+01 23 60 -102
207 1 1.2476480533080285e+00 8.5342159987066211e+00 2.2507059357410043e+01 35 -27 5
62 1 6.3655039376672322e+00 5.8496314392587259e+00 1.6200081077669285e+01 71 -28 -48
305 1 7.8300258304166404e+00 3.7519520324943505e+00 1.5353331200047366e+01 13 88 24
71 1 2.7097056632113383e+00 2.4607625265926067e+00 1.6258224364213099e+01 68 -69 -60
125 1 5.8351671331970278e+00 8.0957259917505677e+00 1.4272844593249211e+01 -47 -33 -9
122 1 2.9733690615414227e-01 9.1605681507410068e+00 1.8035907078559191e+01 13 10 10
411 1 1.0952544482723720e+01 4.3082905055458234e+00 1.6964697393159582e+01 30 113 152
128 1 6.8385829910916884e+00 1.2125016831938689e+00 1.4599036580241487e+01 25 -2 -33
157 1 1.8816579061023488e+00 7.8156989729746096e+00 1.3151457790991641e+01 0 -24 64
205 1 3.6066976552773271e+00 3.0439350293513474e+00 2.3750003692657945e+01 -27 -13 -62
334 1 1.1151111380420344e+01 8.3050884756370351e+00 1.4135862951668020e+01 48 67 15
249 1 6.4582816899924893e+00 4.2265407647077238e+00 1.2711507708528107e+01 -66 -49 -38
512 1 2.8784499910085155e+00 1.0468697508446576e+01 2.0857596183705390e+01 -29 -30 93
439 1 1.0034815282491913e+01 4.9425162923400050e+00 1.4277032836912001e+01 18 -32 -67
114 1 9.6552110195301513e+00 4.3718418737715208e+00 2.1015281953979109e+01 -13 7 -17
86 1 5.9355514187130849e+00 1.4749585583791788e-01 2.1068151002758924e+01 -40 -63 81
381 1 2.9066832769720743e+00 6.3653978607165129e+00 2.1771069087574020e+01 26 -106 39
253 1 8.0654748452966025e+00 1.0081990953969418e+01 2.1758659783278752e+01 1 14 -13
252 1 4.9088430677869765e-01 5.0338306919887224e+00 2.0700518815324241e+01 -43 -82 6
102 1 1.1899031142294044e+01 5.9533972625309506e+00 2.2460821431415582e+01 15 -13 19
7 1 9.8608963683312147e+00 2.8000851411265076e-01 1.5424401636232568e+01 55 9 54
460 1 1.6934407474235313e+00 1.0279663303521367e+01 1.5720915874555107e+01 -115 127 31
497 1 2.8402066640524861e+00 6.7354655470066573e+00 1.7529800227221827e+01 -1 21 24
430 1 3.3735483212473074e+00 7.2253911667290094e-01 1.8785487443070373e+01 58 50 3
109 1 3.6039903705542609e-01 6.4892754783396285e+00 1.8303110845551377e+01 -84 -25 -50
389 1 1.2238257360480063e+01 1.1045494251996799e+00 2.3948044553158145e+01 6 69 -18
101 1 1.2377447792150326e+01 6.7465680783113227e+00 2.0107273443493650e+01 -25 -19 62
404 1 1.0550399057165615e+01 4.4071271950049802e+00 2.4477494493399576e+01 -18 129 59
39 1 1.2404173237080540e+01 1.1107181856726944e+01 2.2094370006947987e+01 6 32 51
123 1 8.6411900616464976e-02 2.1047356710007810e+00 2.4177890102226577e+01 -71 1 12
212 1 5.7709307796494373e+00 1.9941703641508369e+01 6.2692427313555896e+00 -10 -31 -35
80 1 1.0467520480591382e+01 1.6788662544624721e+01 1.0222460545475387e+01 36 50 14
329 1 1.1083091757467672e+01 2.4209247430197866e+01 1.1422172040158394e+01 6 -138 -57
421 1 1.0042197553980003e+01 2.4348481198584576e+01 8.7715501023845128e+00 18 7 76
221 1 6.3990624507478495e+00 1.8801637626866558e+01 9.6858783035218039e+00 3 3 38
349 1 5.5069469889554110e+00 1.8155886231502897e+01 1.1285618589154554e+00 -14 24 55
409 1 7.8065898313366242e+00 1.2631114782233357e+01 3.9536118060736714e+00 -54 82 70
438 1 9.0955673313137737e+00 2.0260559187751682e+01 5.3577266623880240e+00 30 -15 -58
178 1 1.1476194651799542e+01 2.2147805564532248e+01 3.1352108664193001e+00 73 22 -60
504 1 2.6618986187868701e+00 2.4462976408160877e+01 1.1244011087828254e+00 -31 -19 47
356 1 6.5740939256771131e+00 1.8168148719687483e+01 3.8112441860759456e+00 -61 1 -4
8 1 3.5025642242458512e+00 1.8568223760209861e+01 3.7801833707798762e+00 -17 22 -35
498 1 4.9803248492292007e-01 1.5915154790230631e+01 1.0849203644285870e+01 38 21 0
503 1 2.5551155416652893e+00 2.1085345432865211e+01 4.9650263318219281e+00 -11 11 31
168 1 1.0066281256694554e+01 1.6838194353472566e+01 1.3654549392421884e+00 92 -56 -50
469 1 2.5986100798068654e+00 1.6730098046988470e+01 6.1272208385660747e+00 50 13 31
369 1 7.8994234675604753e+00 1.6470259222463898e+01 5.9771373641050074e+00 0 55 1
206 1 1.0710059608860854e+00 2.2571790363244364e+01 2.9669964740992705e+00 17 -85 35
200 1 1.0794548375609448e+01 1.8309355935161598e+01 4.5217339774533594e+00 64 85 -11
170 1 3.5225830514332475e+00 1.8117615426983189e+01 9.5893056978328080e+00 11 40 -29
325 1 9.8228779571936808e+00 2.0334954181753794e+01 1.1914339215754293e+01 -88 33 31
136 1 1.0465361724966948e+01 2.2403934673219112e+01 6.8241280078327744e+00 32 -71 108
52 1 8.8384164757125416e-01 1.3413916631830316e+01 1.1796738677230024e+01 100 -84 142
92 1 1.4253737012678334e+00 2.1300702880291738e+01 1.0611434143036231e+01 -44 48 -100
268 1 8.8755620610050219e+00 1.9272673493054452e+01 2.4991502673421566e+00 -118 0 -8
88 1 1.1594547551448442e+00 2.0283423352916898e+01 9.1627082133904769e-01 -22 21 56
151 1 4.0854555025912971e+00 1.4719464778267231e+01 4.9221562065636144e+00 -40 -30 -10
83 1 1.2015112959482046e+01 1.2620424117435382e+01 9.4426323010235180e-01 34 4 5
236 1 4.7169986691061512e+00 1.4227021668477056e+01 7.6852686089308753e+00 45 73 59
483 1 1.1759992107746383e+01 1.8607011519978929e+01 1.2184590016142611e+01 38 53 15
420 1 2.1989879489236834e+00 1.9497582406719875e+01 7.3841404949561937e+00 30 -30 119
394 1 1.0950585066211829e+01 2.1711098496747809e+01 9.4890857575407992e+00 -107 3 -20
405 1 7.8699514290494577e+00 1.8709195969121343e+01 7.5291613839035980e+00 -21 1 58
328 1 1.0488537165683322e+01 1.8949837889941122e+01 8.6189159463386993e+00 70 81 -14
378 1 8.7932957549397575e+00 2.1982624970115925e+01 2.2616353629173820e+00 11 -16 -52
396 1 2.3000761290834175e+00 1.5579958100130302e+01 8.7537103761205337e+00 2 -1 18
172 1 3.0618099448403617e+00 2.2139468820158292e+01 8.5429998873487616e+00 -21 -106 40
380 1 6.0801844331818149e+00 2.2759629740050233e+01 6.6244382372597128e+00 -8 82 68
318 1 5.7829898107499025e+00 2.1679331610640894e+01 9.2914234454434030e+00 28 8 150
3 1 7.8073375028142591e+00 1.6617791878416305e+01 1.1153020343030191e+01 6 50 24
232 1 4.4505056373929923e+00 2.2965569442576118e+01 4.4271618849377656e+00 82 39 37
208 1 6.5656111712435985e+00 1.5112181637811817e+01 3.6269539196981970e+00 24 84 -15
91 1 7.4285224749826400e+00 1.4502491741938220e+01 7.8383724431423047e+00 -28 -2 28
42 1 5.2369419505919979e+00 2.4259182683585482e+01 1.9812702193517597e+00 -6 73 -64
36 1 3.8819272279196371e-01 1.3714328475470817e+01 2.3408167134999003e+00 116 71 115
459 1 5.3419400256454830e-01 1.7820359531080534e+01 2.8906401828690083e+00 67 -14 51
165 1 1.1745324066025615e+01 1.4401196923642505e+01 1.0623001530504895e+01 81 -16 91
390 1 9.5686014988081958e+00 1.3853418210545977e+01 7.0255267488454010e-01 -19 -48 -22
275 1 1.0531809366385307e+00 1.8658528811421924e+01 1.1086221636498690e+01 36 -8 25
230 1 1.0239339639053191e+00 1.3383049215022156e+01 7.6513223296707142e+00 -3 -23 -132
188 1 1.1145243458784126e+01 1.2832233697790194e+01 6.2206815103281148e+00 5 -5 56
108 1 3.5046188685336910e+00 1.2813114568317785e+01 1.0931488315000424e+01 39 -45 35
242 1 5.0091067298601590e+00 2.1242394484883224e+01 1.2078580446511861e+01 15 5 -51
145 1 2.4089742290695471e+00 1.2424855382133698e+01 1.1820855982090783e+00 30 -5 -53
416 1 8.2085818364929022e+00 2.2647470671947548e+01 1.0040656467244306e+01 -11 -29 25
173 1 5.9483883382059668e+00 1.5518819419874477e+01 9.8621821325139758e-01 50 54 -4
171 1 1.8111244024423609e-01 1.6163054482716177e+01 9.5434242992027107e-01 -41 44 20
484 1 5.9662462058001253e+00 1.4527934323705802e+01 1.0571914404956393e+01 -42 -19 87
186 1 7.9345617173938949e+00 2.3009050123595223e+01 4.6355431000146572e+00 -25 167 37
308 1 7.3213979162194498e-01 1.4643236073176547e+01 5.1605735759894538e+00 46 106 59
313 1 7.2249126768987102e+00 2.3134493334457140e+01 3.8762114057253544e-01 -47 32 33
218 1 1.0561767650370420e+01 1.5605195821181665e+01 5.3843501428064826e+00 -54 -17 -26
434 1 9.9037344629288775e+00 2.4663917724310622e+01 5.0612947941550406e+00 53 -31 -73
4 1 4.3115879026262238e+00 1.5920584195764359e+01 1.2362169109687279e+01 23 -83 2
417 1 6.7469230217186844e+00 2.3495996117916089e+01 1.2191838689157631e+01 12 2 -13
332 1 7.2782999950920226e+00 1.9253683377115657e+01 1.2183235326892360e+01 9 -18 -101
348 1 1.2369274188129792e+01 1.9364244069904000e+01 6.6535286276329009e+00 -7 -19 11
139 1 3.7126839503682101e+00 1.8748150718524933e+01 1.2347006488487107e+01 -20 -7 -21
46 1 7.4223271454268547e+00 1.6638039465611531e+01 1.9219986058038497e+01 37 -13 65
480 1 3.1742881848830790e-01 2.2233107064968944e+01 1.7210017328445414e+01 9 -55 71
482 1 2.6214171732028100e+00 1.6114470450733130e+01 1.5159821718175012e+01 11 64 32
285 1 7.4396182511925755e+00 2.2993569092081390e+01 1.5060156296809840e+01 -33 84 -21
142 1 6.1364914943252646e+00 2.0384168595380483e+01 1.4537828361464662e+01 21 16 54
457 1 3.2427682030069893e+00 1.2440684583079969e+01 1.6814702938385125e+01 -14 -40 73
259 1 7.0911989157689241e+00 1.4154811786651322e+01 1.4484573108266749e+01 0 59 28
237 1 7.0035075283766419e+00 1.9416486270311967e+01 1.8952749788847800e+01 27 -34 -16
38 1 1.2079364024874549e+01 1.3832459347686779e+01 1.9916589859216970e+01 -34 57 -16
94 1 6.6392231493653338e+00 1.2650102538671971e+01 2.2727592991828615e+01 -59 38 48
90 1 1.5116447571277571e+00 1.5400347054957887e+01 1.9898887490415845e+01 -60 -44 -79
243 1 1.2078175480336119e+01 1.9730724460405145e+01 2.0251507841236002e+01 17 -36 -19
14 1 1.0356685200510531e+01 1.8381070015082496e+01 1.4926090614031898e+01 53 -26 39
21 1 3.7119087281277285e-01 1.4767345190055076e+01 1.4190881572446045e+01 10 0 -125
297 1 4.7009304805671359e+00 1.9495514520931199e+01 2.1947574394436611e+01 20 28 -11
502 1 4.0193909920123918e+00 2.0452524992334730e+01 1.7114083600315219e+01 -44 -31 -51
461 1 7.7789666208843737e+00 2.0878053009539947e+01 2.1299625978845317e+01 12 28 -13
32 1 1.1048968089053467e+01 2.3281305591610458e+01 2.3516845446503719e+01 -59 122 -42
216 1 3.4323938022240248e+00 1.8969034148453876e+01 2.4329484376666226e+01 -29 -11 154
147 1 9.6159720539639633e+00 1.6242866710894603e+01 2.1263852459030591e+01 -32 24 87
110 1 9.8194399084501605e+00 2.0863806844150332e+01 2.2990096005439003e+01 24 -29 -23
424 1 1.1811432351130486e+01 1.4985814059653434e+01 2.2495753144917909e+01 37 3 -21
138 1 2.8000011262243243e+00 2.2561871958573974e+01 1.8594975009772618e+01 187 41 16
335 1 6.8683100308771827e+00 1.3635632552117903e+01 2.0069958278907123e+01 22 -28 89
179 1 5.2084138725037805e+00 1.5691305232591924e+01 1.6051298780032106e+01 -71 -70 -37
61 1 1.1812239030369746e+01 1.2769183085399003e+01 1.7369023380162407e+01 89 -67 96
33 1 2.6238228084457300e+00 1.8939868227150356e+01 1.4901376026626291e+01 -105 -41 -13
413 1 1.1288695063847543e+01 2.2086206897697917e+01 1.3364614345632392e+01 -28 1 -27
116 1 9.5533940500304766e+00 1.2563062928117809e+01 1.4112686363528923e+01 -46 3 0
199 1 3.8853359414116775e+00 1.4339599680262186e+01 2.4437762404415924e+01 21 69 -20
506 1 5.6973061288053293e+00 2.2638036506799821e+01 1.7146473158505106e+01 -15 -16 -8
264 1 2.1458518028409710e+00 1.6496668332974529e+01 2.3727415316489260e+01 -99 27 41
137 1 1.1120873311259691e+01 1.7251549303800466e+01 1.9014136558682626e+01 -2 -25 58
278 1 2.1202158168261720e+00 1.7616044354854605e+01 2.1069643333439799e+01 -74 -111 46
336 1 5.2361292287655719e+00 1.6742856004594245e+01 2.1231524868446737e+01 33 -3 -125
201 1 4.3928862050799697e+00 1.8221620243540066e+01 1.8789400400150548e+01 -99 -55 37
357 1 1.1543492039427912e+01 2.2486400864620641e+01 2.1064626127882196e+01 6 -12 -5
27 1 7.4504660233835533e+00 2.3039001747500532e+01 1.9487087221346162e+01 6 -31 44
432 1 9.3732175387972347e+00 1.4300539344225452e+01 1.8885792651113512e+01 35 -54 3
321 1 1.9677590481685028e+00 2.2552600906152303e+01 2.1521059047194537e+01 43 22 -88
448 1 4.1361911123961663e+00 1.3482770782175960e+01 1.4245339178150322e+01 12 -48 -8
437 1 8.7827027431830409e+00 1.6390099990215010e+01 1.3760915530830248e+01 -3 13 -125
499 1 7.9176310674654893e+00 1.5007819364266808e+01 2.3449080840082303e+01 46 -21 -79
353 1 6.1285351607058729e+00 2.1320320792372840e+01 2.3453345365969337e+01 -173 61 100
455 1 4.0481361648475689e+00 1.4100919789216444e+01 2.0915885217151644e+01 56 101 25
175 1 1.9869488072085177e+00 1.7126076838840667e+01 1.7710495249143865e+01 40 3 -19
489 1 4.8326434024692109e+00 2.2307071031491066e+01 2.0961572148771797e+01 74 182 -36
228 1 9.9412553600544840e+00 1.9784985880734432e+01 1.8218267524669233e+01 -33 22 18
93 1 7.9528738228086047e+00 1.8650757087609115e+01 1.6131485182541770e+01 -29 -7 16
56 1 7.4848038150802099e+00 1.8128176581864508e+01 2.2290534196374985e+01 -5 78 17
371 1 2.2660295363134773e+00 2.2873728740366325e+01 1.2579311232093350e+01 -70 27 -64
106 1 1.0865925024314150e+01 1.8130167572043579e+01 2.3463058454932341e+01 14 -14 6
419 1 1.1533005644280683e+01 2.4066254340824784e+01 1.7250989442324510e+01 36 13 12
266 1 8.1049385214189851e+00 1.5917735072855807e+01 1.6496474973919366e+01 31 -64 14
407 1 5.9483387069116604e+00 1.7600740503442189e+01 1.3988918548196006e+01 9 7 61
247 1 1.0139212140254239e+01 2.4201692366323989e+01 1.9762452997430774e+01 22 -14 9
377 1 1.1543713985354497e+01 2.1640621191317443e+01 1.6308119590493739e+01 17 13 -108
385 1 1.5957442119166245e+00 2.1550082693168751e+01 1.4883328800039395e+01 43 23 51
220 1 1.0816871333155293e+01 1.4909307822205148e+01 1.5820914613478799e+01 44 -3 -2
167 1 5.7787781370563840e-01 1.9932135528363983e+01 2.1356174669391898e+01 29 -15 5
320 1 9.3361815252484814e-01 1.2746254679256770e+01 1.8958371752331672e+01 28 87 44
155 1 1.3047845665102022e+00 2.4603008346570586e+01 2.3322104241306448e+01 -47 30 35
126 1 7.8150942752756949e+00 1.9391648979148211e+01 2.4668861965716090e+01 -40 -38 -43
223 1 5.3768708239438467e-02 1.9191805670494219e+01 1.3609799453958740e+01 107 28 1
342 1 1.8655040346441950e+01 5.9586640577258247e+00 1.1162538212208455e+01 29 -9 16
451 1 1.6800224633978686e+01 1.0248688261277833e+01 4.6891361960699829e+00 70 26 -14
202 1 1.3904471625614073e+01 1.0914038716127055e+00 8.6721037751314185e+00 33 85 -19
363 1 2.2797472400761549e+01 5.1164114989506881e+00 8.7549518190560267e+00 -18 -32 18
30 1 2.0678985276330785e+01 1.1716929967810996e+01 4.0277029442039716e+00 -77 5 -10
73 1 1.7086940061051731e+01 4.3267080802250151e+00 2.1790543423646089e+00 -65 5 22
184 1 1.5775744644091036e+01 1.2264361872869369e+01 1.7671275378539180e+00 0 3 37
182 1 1.9009886955426044e+01 1.0420765620412636e+01 8.8580101353737035e+00 122 51 54
191 1 2.2687869873870891e+01 9.2200615522665537e+00 6.4683943570771500e+00 40 -20 -18
492 1 1.3334065396614637e+01 5.2228649057597361e+00 9.0899360042881785e+00 -15 -28 53
164 1 1.9099288537736790e+01 1.4479257391613207e+00 4.5437141742273468e+00 47 19 141
316 1 1.5041019685862262e+01 9.8869305089795489e-01 4.6022356006476635e+00 40 125 72
376 1 1.8494236683677478e+01 6.3237188589607705e+00 3.6873717256452503e+00 -76 -12 -2
487 1 1.5899637755083678e+01 4.1350755667998600e+00 1.2325130287737602e+01 38 42 -8
423 1 1.3791016511272272e+01 1.0791697957775821e+01 7.5163109315348722e+00 -14 0 51
289 1 1.8361331663907162e+01 1.1427569074868293e+01 2.5527258941952851e+00 -23 -11 -51
270 1 2.4252868790613689e+01 3.5926401516479980e+00 1.0423138971869660e+01 18 131 104
364 1 2.4413586320058137e+01 7.8648869957923413e+00 3.7900616455505927e+00 102 19 -3
185 1 1.7544522845769052e+01 7.3620857259491581e+00 1.2208119528786001e+00 1 10 -11
302 1 1.6126905328271576e+01 1.2169523803522717e+01 6.4483841563595199e+00 37 -69 -23
401 1 1.3911532815598633e+01 8.5696406850520539e+00 9.4776396829649290e+00 32 15 20
510 1 2.0817516776065538e+01 9.4547533519994325e+00 6.0686070647067447e-01 -64 138 38
273 1 1.5651427407277115e+01 5.5962864580864824e-01 2.4146023281152049e-01 65 176 124
69 1 1.9972351750945940e+01 4.0915266612668209e+00 3.4449792714733890e-01 -25 12 2
452 1 1.6700890472943524e+01 4.3034791477452208e+00 7.1711056040568035e+00 10 7 92
72 1 2.2111056269269607e+01 4.5504599483758392e+00 1.9673062012724853e+00 27 61 52
386 1 1.5365894462592170e+01 3.2288643258394991e+00 9.5733686384728234e+00 81 -43 -3
406 1 2.3706279587497686e+01 2.0202045782542148e+00 4.7303114517002554e+00 39 142 2
250 1 1.4222942037124859e+01 4.7080449058677054e+00 1.4043631621952757e+00 -8 4 166
112 1 1.3992033128421101e+01 6.3082686996614088e+00 1.1561388328243110e+01 19 93 -33
248 1 1.5422638544535557e+01 1.0587068559162031e+01 1.1188384409066662e+01 -44 31 -2
214 1 1.6913774999777157e+01 8.2443234836248642e+00 9.6842065510806155e+00 13 95 2
256 1 2.3429466658244429e+01 2.3074296453488818e+00 1.9532284890842995e+00 39 18 -38
104 1 2.2769134174304785e+01 6.3116045241157943e+00 5.9744664551100772e+00 77 27 -16
415 1 1.5447766548599530e+01 6.9290166825756749e+00 7.4539391169675779e+00 -62 -46 20
180 1 1.5275488756274330e+01 9.5497330198455046e+00 2.5796017303863610e+00 -6 290 -26
393 1 1.7811711145724253e+01 2.2502629927614692e+00 7.5886223944324283e-01 82 41 -77
241 1 1.6906316489363654e+01 2.9189726021853573e+00 4.4844720867782240e+00 2 -109 -28
15 1 1.6605399854475831e+01 1.1939805162162685e+01 9.3256300699625569e+00 11 -14 -134
96 1 1.8409050513144884e+01 4.1859554090743840e+00 9.2166231902564899e+00 234 43 64
211 1 2.0835346589740212e+01 5.3337478269750127e+00 4.1849115984049945e+00 -31 12 -27
99 1 1.2821885384666114e+01 1.1417739645442607e+01 1.2223170478855781e+01 -1 -4 37
291 1 1.9141080693050007e+01 1.2037697010248360e+01 6.3990952768622620e+00 35 104 74
475 1 1.8031346774091585e+01 2.2228414058080261e+00 1.1050165667126146e+01 14 -9 -22
213 1 2.4269884091892418e+01 1.3766222189653561e+00 1.2188781033144245e+01 -50 -16 19
440 1 1.4542338327067963e+01 6.8221699097591646e+00 2.8173845577194094e+00 -29 -29 121
149 1 1.8089623921640833e+01 9.9214246350396316e+00 3.0657552615838624e-01 -56 58 -9
490 1 1.9343737115121179e+01 3.5599694023758754e-01 2.2523104472519648e+00 -1 -102 -3
43 1 2.0900195580655243e+01 3.2934244538155566e+00 8.2579457141155199e+00 -10 -5 14
362 1 2.1056735216232411e+01 6.8249706028533650e+00 1.0218130904234048e+01 -46 -22 -64
131 1 2.2359850070040526e+01 1.0799200879328660e+01 8.9083125414275273e+00 16 -24 -15
156 1 2.0210297314594527e+01 8.1993822446400468e+00 7.8377905393581377e+00 53 34 -9
500 1 2.0739354882575014e+01 5.1513822487159677e-01 9.1593332305999020e+00 85 -79 60
217 1 1.7744490879111591e+01 8.0518410216559229e+00 6.0798020112761977e+00 90 -46 82
89 1 2.1267662606424238e+01 2.9017621128763889e+00 5.4350267432671044e+00 -20 13 -173
235 1 2.2053471184114677e+01 9.3427012636510725e+00 3.1716364855129147e+00 26 -60 139
97 1 2.2483586398778002e+01 8.9531434736449604e+00 1.0952570317388322e+01 19 58 -17
244 1 1.3834424616340495e+01 5.7017268258153821e+00 5.2506235107687527e+00 -42 69 11
341 1 1.8317175061667719e+01 1.0065505303349916e+01 1.1754533022126441e+01 44 -27 69
309 1 2.4804063653835872e+01 1.1624471806480022e+01 9.5020127819939439e+00 54 61 -48
290 1 2.0666001272699461e+01 4.6843647516680259e-01 1.1956221468375839e+01 -5 -94 -80
463 1 2.3227533250385129e+01 6.2942673466215675e+00 4.2508534157779643e-01 -35 27 -41
337 1 1.2580883739161408e+01 1.0587923290889279e+01 5.2399238304473084e+00 18 9 -39
193 1 2.1663396244556171e+01 3.1430132819382144e+00 1.8746963037107221e+01 -83 15 -11
373 1 1.8253505694288105e+01 8.6793939531935429e+00 1.4081410218868463e+01 52 36 -43
477 1 2.2391048999944363e+01 2.2525138962856941e+00 2.2642522256853319e+01 42 -5 40
74 1 1.7778384148466117e+01 5.3822219784545167e-01 1.7111119456261910e+01 0 60 -8
45 1 2.2140126794957116e+01 2.7925795217070983e+00 1.6015355933242262e+01 3 81 -75
63 1 1.6350530439596902e+01 5.0775650857378385e-01 1.9796143685451220e+01 1 3 -102
295 1 1.3666833462794440e+01 8.7411734655403306e-01 1.6773237509826362e+01 -35 -10 -17
258 1 1.9558188254144998e+01 6.1333146670121872e+00 1.3967469558180481e+01 123 -53 73
29 1 1.4954328844446438e+01 7.5581309416939757e-01 2.2154070562251317e+01 55 -47 -22
345 1 2.1839931986638398e+01 7.0995935352926631e+00 2.1536604276171715e+01 84 135 -24
192 1 2.2562045640004232e+01 1.1181082124480319e+01 1.4927004367183436e+01 -83 68 -52
441 1 2.2243709114145027e+01 1.1497240392309768e+01 2.4021954445302800e+01 -6 -68 -23
31 1 2.4146051620931356e+01 4.6752338694700670e+00 2.3100288498671549e+01 -52 -22 125
427 1 2.2356501591925188e+01 6.0270088914700262e+00 1.8913970410209235e+01 129 -14 12
397 1 1.5008819778802328e+01 2.2933852630832186e+00 1.4337371415305451e+01 -45 59 -46
485 1 1.9173241283812050e+01 9.9683805002917296e+00 1.6219704613061914e+01 -15 -6 80
351 1 1.7544684174430763e+01 7.8789701272713977e+00 2.0206760175729272e+01 26 -27 -73
505 1 1.5396241156181398e+01 9.5840729471608519e+00 2.4482463222688551e+01 0 28 -46
238 1 2.0238304938164976e+01 8.8166601759820651e+00 2.0153768837672999e+01 55 7 -17
12 1 1.4327401977904840e+01 1.1412227401580838e+01 1.5942268683370095e+01 44 -37 63
355 1 1.6861338739941733e+01 1.1164654398066990e+01 1.7112409115487210e+01 -36 -1 70