LAMMPS (4 Jan 2019)
Reading data file ...
  orthogonal box = (0 0 0) to (24.834 24.834 24.834)
  1 by 1 by 2 MPI processor grid
  reading atoms ...
  512 atoms
Finding 1-2 1-3 1-4 neighbors ...
  special bond factors lj:   0          0          0         
  special bond factors coul: 0          0          0         
  0 = max # of 1-2 neighbors
  0 = max # of 1-3 neighbors
  0 = max # of 1-4 neighbors
  1 = max # of special neighbors
Neighbor list info ...
  update every 1 steps, delay 0 steps, check yes
  max neighbors/atom: 2000, page size: 100000
  master list distance cutoff = 6.29144
  ghost atom cutoff = 6.29144
  1 neighbor lists, perpetual/occasional/extra = 1 0 0
  (1) pair sw, perpetual
      attributes: full, newton on
      pair build: full/nsq
      stencil: none
      bin: none
Setting up Verlet run ...
  Unit style    : real
  Current step  : 0
  Time step     : 5
Per MPI rank memory allocation (min/avg/max) = 5.667 | 5.667 | 5.667 Mbytes
---------------- Step        0 ----- CPU =      0.0000 (sec) ----------------
Time     = 0.000000 Temp     = 0.000000 Press    = 89748.594691 
PotEng   = 2.251446 KinEng   = 0.000000 Lx       = 24.834001 
Ly       = 24.834001 Lz       = 24.834001 Volume   = 15315.813976 
Density  = 1.000047 
---------------- Step    20000 ----- CPU =     34.1476 (sec) ----------------
Time     = 100000.000000 Temp     = 241.243219 Press    = 311.278514 
PotEng   = -9.913581 KinEng   = 0.717696 Lx       = 24.804965 
Ly       = 24.804965 Lz       = 24.804965 Volume   = 15262.154696 
Density  = 1.003563 
---------------- Step    40000 ----- CPU =     68.1573 (sec) ----------------
Time     = 200000.000000 Temp     = 239.936982 Press    = -538.290066 
PotEng   = -9.976565 KinEng   = 0.713810 Lx       = 24.820811 
Ly       = 24.820811 Lz       = 24.820811 Volume   = 15291.423044 
Density  = 1.001642 
---------------- Step    60000 ----- CPU =    102.0763 (sec) ----------------
Time     = 300000.000000 Temp     = 234.459716 Press    = 412.501903 
PotEng   = -9.876006 KinEng   = 0.697515 Lx       = 24.714287 
Ly       = 24.714287 Lz       = 24.714287 Volume   = 15095.386700 
Density  = 1.014650 
---------------- Step    80000 ----- CPU =    136.1303 (sec) ----------------
Time     = 400000.000000 Temp     = 246.403928 Press    = -808.630648 
PotEng   = -9.934052 KinEng   = 0.733049 Lx       = 24.905667 
Ly       = 24.905667 Lz       = 24.905667 Volume   = 15448.791804 
Density  = 0.991439 
---------------- Step   100000 ----- CPU =    170.4089 (sec) ----------------
Time     = 500000.000000 Temp     = 243.891464 Press    = 771.650910 
PotEng   = -9.908431 KinEng   = 0.725574 Lx       = 24.787893 
Ly       = 24.787893 Lz       = 24.787893 Volume   = 15230.663975 
Density  = 1.005638 
---------------- Step   120000 ----- CPU =    204.4083 (sec) ----------------
Time     = 600000.000000 Temp     = 239.863147 Press    = -912.386528 
PotEng   = -9.847990 KinEng   = 0.713590 Lx       = 24.871421 
Ly       = 24.871421 Lz       = 24.871421 Volume   = 15385.153015 
Density  = 0.995540 
---------------- Step   140000 ----- CPU =    238.7272 (sec) ----------------
Time     = 700000.000000 Temp     = 231.865100 Press    = 47.444094 
PotEng   = -9.842352 KinEng   = 0.689796 Lx       = 24.811338 
Ly       = 24.811338 Lz       = 24.811338 Volume   = 15273.921671 
Density  = 1.002790 
---------------- Step   160000 ----- CPU =    272.7518 (sec) ----------------
Time     = 800000.000000 Temp     = 247.358942 Press    = 67.299890 
PotEng   = -9.925829 KinEng   = 0.735890 Lx       = 24.812635 
Ly       = 24.812635 Lz       = 24.812635 Volume   = 15276.317032 
Density  = 1.002633 
---------------- Step   180000 ----- CPU =    306.6743 (sec) ----------------
Time     = 900000.000000 Temp     = 230.682766 Press    = -166.162526 
PotEng   = -9.947751 KinEng   = 0.686278 Lx       = 24.834522 
Ly       = 24.834522 Lz       = 24.834522 Volume   = 15316.778008 
Density  = 0.999984 
---------------- Step   200000 ----- CPU =    341.0125 (sec) ----------------
Time     = 1000000.000000 Temp     = 235.018987 Press    = -573.782830 
PotEng   = -9.833756 KinEng   = 0.699179 Lx       = 24.792677 
Ly       = 24.792677 Lz       = 24.792677 Volume   = 15239.484643 
Density  = 1.005056 
---------------- Step   220000 ----- CPU =    375.1827 (sec) ----------------
Time     = 1100000.000000 Temp     = 220.915525 Press    = -480.152942 
PotEng   = -9.895511 KinEng   = 0.657221 Lx       = 24.755709 
Ly       = 24.755709 Lz       = 24.755709 Volume   = 15171.415048 
Density  = 1.009565 
---------------- Step   240000 ----- CPU =    409.4580 (sec) ----------------
Time     = 1200000.000000 Temp     = 244.016766 Press    = 814.437545 
PotEng   = -9.874900 KinEng   = 0.725947 Lx       = 24.735293 
Ly       = 24.735293 Lz       = 24.735293 Volume   = 15133.911916 
Density  = 1.012067 
---------------- Step   260000 ----- CPU =    443.9239 (sec) ----------------
Time     = 1300000.000000 Temp     = 218.895196 Press    = 1021.790096 
PotEng   = -9.871947 KinEng   = 0.651211 Lx       = 24.726075 
Ly       = 24.726075 Lz       = 24.726075 Volume   = 15116.997801 
Density  = 1.013200 
---------------- Step   280000 ----- CPU =    478.1989 (sec) ----------------
Time     = 1400000.000000 Temp     = 235.520829 Press    = -1051.381206 
PotEng   = -9.897023 KinEng   = 0.700672 Lx       = 24.840998 
Ly       = 24.840998 Lz       = 24.840998 Volume   = 15328.762569 
Density  = 0.999202 
---------------- Step   300000 ----- CPU =    512.0903 (sec) ----------------
Time     = 1500000.000000 Temp     = 230.629885 Press    = 181.972919 
PotEng   = -9.880158 KinEng   = 0.686121 Lx       = 24.723175 
Ly       = 24.723175 Lz       = 24.723175 Volume   = 15111.680077 
Density  = 1.013556 
---------------- Step   320000 ----- CPU =    546.4336 (sec) ----------------
Time     = 1600000.000000 Temp     = 235.840380 Press    = -107.706182 
PotEng   = -9.850919 KinEng   = 0.701622 Lx       = 24.786154 
Ly       = 24.786154 Lz       = 24.786154 Volume   = 15227.458211 
Density  = 1.005850 
---------------- Step   340000 ----- CPU =    580.4743 (sec) ----------------
Time     = 1700000.000000 Temp     = 237.228065 Press    = 72.169181 
PotEng   = -9.867206 KinEng   = 0.705751 Lx       = 24.841706 
Ly       = 24.841706 Lz       = 24.841706 Volume   = 15330.074529 
Density  = 0.999117 
---------------- Step   360000 ----- CPU =    614.6265 (sec) ----------------
Time     = 1800000.000000 Temp     = 244.464744 Press    = -927.983792 
PotEng   = -9.864348 KinEng   = 0.727280 Lx       = 24.840035 
Ly       = 24.840035 Lz       = 24.840035 Volume   = 15326.980410 
Density  = 0.999318 
---------------- Step   380000 ----- CPU =    648.8954 (sec) ----------------
Time     = 1900000.000000 Temp     = 241.645148 Press    = 1075.976848 
PotEng   = -9.905108 KinEng   = 0.718891 Lx       = 24.781534 
Ly       = 24.781534 Lz       = 24.781534 Volume   = 15218.944596 
Density  = 1.006412 
---------------- Step   400000 ----- CPU =    683.1653 (sec) ----------------
Time     = 2000000.000000 Temp     = 236.736698 Press    = -470.423766 
PotEng   = -9.824184 KinEng   = 0.704289 Lx       = 24.882577 
Ly       = 24.882577 Lz       = 24.882577 Volume   = 15405.864578 
Density  = 0.994202 
Loop time of 683.166 on 2 procs for 400000 steps with 512 atoms

Performance: 252.940 ns/day, 0.095 hours/ns, 585.510 timesteps/s
98.9% CPU use with 2 MPI tasks x no OpenMP threads

MPI task timing breakdown:
Section |  min time  |  avg time  |  max time  |%varavg| %total
---------------------------------------------------------------
Pair    | 620.53     | 624.46     | 628.38     |  15.7 | 91.41
Bond    | 0.029514   | 0.029771   | 0.030028   |   0.1 |  0.00
Neigh   | 27.655     | 27.675     | 27.694     |   0.4 |  4.05
Comm    | 19.285     | 23.204     | 27.123     |  81.4 |  3.40
Output  | 0.0007093  | 0.00261    | 0.0045106  |   3.7 |  0.00
Modify  | 6.5646     | 6.6043     | 6.644      |   1.5 |  0.97
Other   |            | 1.19       |            |       |  0.17

Nlocal:    256 ave 261 max 251 min
Histogram: 1 0 0 0 0 0 0 0 0 1
Nghost:    927.5 ave 936 max 919 min
Histogram: 1 0 0 0 0 0 0 0 0 1
Neighs:    0 ave 0 max 0 min
Histogram: 2 0 0 0 0 0 0 0 0 0
FullNghs:  8476 ave 8645 max 8307 min
Histogram: 1 0 0 0 0 0 0 0 0 1

Total # of neighbors = 16952
Ave neighs/atom = 33.1094
Ave special neighs/atom = 0
Neighbor list builds = 22866
Dangerous builds = 0
Setting up Verlet run ...
  Unit style    : real
  Current step  : 0
  Time step     : 5
Per MPI rank memory allocation (min/avg/max) = 5.706 | 5.706 | 5.707 Mbytes
---------------- Step        0 ----- CPU =      0.0000 (sec) ----------------
Time     = 2000000.000000 Temp     = 236.736698 Press    = -470.423766 
PotEng   = -9.824184 KinEng   = 0.704289 Lx       = 24.882577 
Ly       = 24.882577 Lz       = 24.882577 Volume   = 15405.864578 
Density  = 0.994202 
---------------- Step    20000 ----- CPU =     34.4007 (sec) ----------------
Time     = 2100000.000000 Temp     = 235.484524 Press    = 110.274426 
PotEng   = -9.835660 KinEng   = 0.700564 Lx       = 24.767176 
Ly       = 24.767176 Lz       = 24.767176 Volume   = 15192.507953 
Density  = 1.008164 
---------------- Step    40000 ----- CPU =     68.4192 (sec) ----------------
Time     = 2200000.000000 Temp     = 241.330997 Press    = 454.732180 
PotEng   = -9.899391 KinEng   = 0.717957 Lx       = 24.800473 
Ly       = 24.800473 Lz       = 24.800473 Volume   = 15253.864856 
Density  = 1.004108 
---------------- Step    60000 ----- CPU =    102.7103 (sec) ----------------
Time     = 2300000.000000 Temp     = 242.251840 Press    = 39.166479 
PotEng   = -9.824616 KinEng   = 0.720696 Lx       = 24.761511 
Ly       = 24.761511 Lz       = 24.761511 Volume   = 15182.085095 
Density  = 1.008856 
---------------- Step    80000 ----- CPU =    136.9303 (sec) ----------------
Time     = 2400000.000000 Temp     = 258.422237 Press    = 119.944294 
PotEng   = -9.843973 KinEng   = 0.768803 Lx       = 24.820489 
Ly       = 24.820489 Lz       = 24.820489 Volume   = 15290.828353 
Density  = 1.001681 
---------------- Step   100000 ----- CPU =    170.9699 (sec) ----------------
Time     = 2500000.000000 Temp     = 241.471960 Press    = 276.061957 
PotEng   = -9.953610 KinEng   = 0.718376 Lx       = 24.751169 
Ly       = 24.751169 Lz       = 24.751169 Volume   = 15163.069774 
Density  = 1.010121 
---------------- Step   120000 ----- CPU =    205.1925 (sec) ----------------
Time     = 2600000.000000 Temp     = 252.024186 Press    = 701.783008 
PotEng   = -9.890056 KinEng   = 0.749769 Lx       = 24.774028 
Ly       = 24.774028 Lz       = 24.774028 Volume   = 15205.120528 
Density  = 1.007327 
---------------- Step   140000 ----- CPU =    239.4538 (sec) ----------------
Time     = 2700000.000000 Temp     = 252.520215 Press    = 381.260197 
PotEng   = -9.888686 KinEng   = 0.751245 Lx       = 24.811173 
Ly       = 24.811173 Lz       = 24.811173 Volume   = 15273.617111 
Density  = 1.002810 
---------------- Step   160000 ----- CPU =    273.6544 (sec) ----------------
Time     = 2800000.000000 Temp     = 237.270888 Press    = 528.222722 
PotEng   = -9.909237 KinEng   = 0.705878 Lx       = 24.747067 
Ly       = 24.747067 Lz       = 24.747067 Volume   = 15155.531979 
Density  = 1.010623 
---------------- Step   180000 ----- CPU =    307.7192 (sec) ----------------
Time     = 2900000.000000 Temp     = 232.791000 Press    = -49.372950 
PotEng   = -9.966652 KinEng   = 0.692550 Lx       = 24.853307 
Ly       = 24.853307 Lz       = 24.853307 Volume   = 15351.561167 
Density  = 0.997718 
---------------- Step   200000 ----- CPU =    341.8991 (sec) ----------------
Time     = 3000000.000000 Temp     = 245.653713 Press    = -403.238567 
PotEng   = -9.946970 KinEng   = 0.730817 Lx       = 24.815452 
Ly       = 24.815452 Lz       = 24.815452 Volume   = 15281.521256 
Density  = 1.002291 
---------------- Step   220000 ----- CPU =    376.1200 (sec) ----------------
Time     = 3100000.000000 Temp     = 243.226625 Press    = 110.694867 
PotEng   = -9.967051 KinEng   = 0.723596 Lx       = 24.871155 
Ly       = 24.871155 Lz       = 24.871155 Volume   = 15384.658597 
Density  = 0.995572 
---------------- Step   240000 ----- CPU =    410.2965 (sec) ----------------
Time     = 3200000.000000 Temp     = 240.787094 Press    = -299.870631 
PotEng   = -9.843389 KinEng   = 0.716339 Lx       = 24.813621 
Ly       = 24.813621 Lz       = 24.813621 Volume   = 15278.138275 
Density  = 1.002513 
---------------- Step   260000 ----- CPU =    444.4453 (sec) ----------------
Time     = 3300000.000000 Temp     = 228.706466 Press    = 748.170986 
PotEng   = -9.839489 KinEng   = 0.680399 Lx       = 24.740862 
Ly       = 24.740862 Lz       = 24.740862 Volume   = 15144.134994 
Density  = 1.011384 
---------------- Step   280000 ----- CPU =    478.8753 (sec) ----------------
Time     = 3400000.000000 Temp     = 240.098757 Press    = -352.944496 
PotEng   = -9.910187 KinEng   = 0.714291 Lx       = 24.791245 
Ly       = 24.791245 Lz       = 24.791245 Volume   = 15236.843888 
Density  = 1.005230 
---------------- Step   300000 ----- CPU =    513.0259 (sec) ----------------
Time     = 3500000.000000 Temp     = 235.612543 Press    = -57.042328 
PotEng   = -9.814464 KinEng   = 0.700945 Lx       = 24.824251 
Ly       = 24.824251 Lz       = 24.824251 Volume   = 15297.782042 
Density  = 1.001226 
---------------- Step   320000 ----- CPU =    547.2565 (sec) ----------------
Time     = 3600000.000000 Temp     = 228.509275 Press    = 283.279098 
PotEng   = -9.872480 KinEng   = 0.679812 Lx       = 24.769340 
Ly       = 24.769340 Lz       = 24.769340 Volume   = 15196.491315 
Density  = 1.007899 
---------------- Step   340000 ----- CPU =    581.6152 (sec) ----------------
Time     = 3700000.000000 Temp     = 243.390517 Press    = 74.841844 
PotEng   = -9.850986 KinEng   = 0.724084 Lx       = 24.839523 
Ly       = 24.839523 Lz       = 24.839523 Volume   = 15326.032332 
Density  = 0.999380 
---------------- Step   360000 ----- CPU =    615.6792 (sec) ----------------
Time     = 3800000.000000 Temp     = 249.378241 Press    = -19.357382 
PotEng   = -9.923888 KinEng   = 0.741897 Lx       = 24.840290 
Ly       = 24.840290 Lz       = 24.840290 Volume   = 15327.452466 
Density  = 0.999288 
---------------- Step   380000 ----- CPU =    649.8047 (sec) ----------------
Time     = 3900000.000000 Temp     = 240.937038 Press    = -434.970172 
PotEng   = -9.850937 KinEng   = 0.716785 Lx       = 24.783994 
Ly       = 24.783994 Lz       = 24.783994 Volume   = 15223.478389 
Density  = 1.006113 
---------------- Step   400000 ----- CPU =    683.6913 (sec) ----------------
Time     = 4000000.000000 Temp     = 240.577117 Press    = -782.252636 
PotEng   = -9.919283 KinEng   = 0.715714 Lx       = 24.826482 
Ly       = 24.826482 Lz       = 24.826482 Volume   = 15301.907335 
Density  = 1.000956 
---------------- Step   420000 ----- CPU =    717.9263 (sec) ----------------
Time     = 4100000.000000 Temp     = 241.449168 Press    = -326.594453 
PotEng   = -9.833170 KinEng   = 0.718308 Lx       = 24.755757 
Ly       = 24.755757 Lz       = 24.755757 Volume   = 15171.503108 
Density  = 1.009559 
---------------- Step   440000 ----- CPU =    751.8653 (sec) ----------------
Time     = 4200000.000000 Temp     = 245.859066 Press    = 521.900299 
PotEng   = -9.866751 KinEng   = 0.731428 Lx       = 24.774191 
Ly       = 24.774191 Lz       = 24.774191 Volume   = 15205.421422 
Density  = 1.007307 
---------------- Step   460000 ----- CPU =    786.0773 (sec) ----------------
Time     = 4300000.000000 Temp     = 245.973093 Press    = 464.217571 
PotEng   = -9.855176 KinEng   = 0.731767 Lx       = 24.756530 
Ly       = 24.756530 Lz       = 24.756530 Volume   = 15172.925111 
Density  = 1.009465 
---------------- Step   480000 ----- CPU =    820.0496 (sec) ----------------
Time     = 4400000.000000 Temp     = 234.112154 Press    = 1441.000691 
PotEng   = -9.837841 KinEng   = 0.696481 Lx       = 24.704768 
Ly       = 24.704768 Lz       = 24.704768 Volume   = 15077.951423 
Density  = 1.015823 
---------------- Step   500000 ----- CPU =    854.1825 (sec) ----------------
Time     = 4500000.000000 Temp     = 256.574428 Press    = 397.564864 
PotEng   = -9.832141 KinEng   = 0.763306 Lx       = 24.794198 
Ly       = 24.794198 Lz       = 24.794198 Volume   = 15242.289994 
Density  = 1.004871 
---------------- Step   520000 ----- CPU =    888.3827 (sec) ----------------
Time     = 4600000.000000 Temp     = 238.770126 Press    = 35.144420 
PotEng   = -9.827436 KinEng   = 0.710338 Lx       = 24.794978 
Ly       = 24.794978 Lz       = 24.794978 Volume   = 15243.726835 
Density  = 1.004776 
---------------- Step   540000 ----- CPU =    922.6575 (sec) ----------------
Time     = 4700000.000000 Temp     = 226.123447 Press    = 767.070142 
PotEng   = -9.897128 KinEng   = 0.672715 Lx       = 24.700470 
Ly       = 24.700470 Lz       = 24.700470 Volume   = 15070.083869 
Density  = 1.016354 
---------------- Step   560000 ----- CPU =    956.9221 (sec) ----------------
Time     = 4800000.000000 Temp     = 254.713132 Press    = -508.397381 
PotEng   = -9.901491 KinEng   = 0.757769 Lx       = 24.945542 
Ly       = 24.945542 Lz       = 24.945542 Volume   = 15523.113635 
Density  = 0.986692 
---------------- Step   580000 ----- CPU =    991.1980 (sec) ----------------
Time     = 4900000.000000 Temp     = 238.866437 Press    = -872.758478 
PotEng   = -9.774461 KinEng   = 0.710625 Lx       = 24.875350 
Ly       = 24.875350 Lz       = 24.875350 Volume   = 15392.445087 
Density  = 0.995068 
---------------- Step   600000 ----- CPU =   1025.4331 (sec) ----------------
Time     = 5000000.000000 Temp     = 251.075005 Press    = 350.878288 
PotEng   = -9.867379 KinEng   = 0.746945 Lx       = 24.818170 
Ly       = 24.818170 Lz       = 24.818170 Volume   = 15286.542002 
Density  = 1.001962 
---------------- Step   620000 ----- CPU =   1059.6094 (sec) ----------------
Time     = 5100000.000000 Temp     = 237.230800 Press    = 112.600103 
PotEng   = -9.819554 KinEng   = 0.705759 Lx       = 24.801310 
Ly       = 24.801310 Lz       = 24.801310 Volume   = 15255.409909 
Density  = 1.004007 
---------------- Step   640000 ----- CPU =   1093.7475 (sec) ----------------
Time     = 5200000.000000 Temp     = 249.022677 Press    = -761.003429 
PotEng   = -9.818705 KinEng   = 0.740840 Lx       = 24.831333 
Ly       = 24.831333 Lz       = 24.831333 Volume   = 15310.878420 
Density  = 1.000369 
---------------- Step   660000 ----- CPU =   1127.9765 (sec) ----------------
Time     = 5300000.000000 Temp     = 232.432388 Press    = -319.547498 
PotEng   = -9.894677 KinEng   = 0.691484 Lx       = 24.839365 
Ly       = 24.839365 Lz       = 24.839365 Volume   = 15325.739604 
Density  = 0.999399 
---------------- Step   680000 ----- CPU =   1162.2369 (sec) ----------------
Time     = 5400000.000000 Temp     = 237.191238 Press    = -427.451584 
PotEng   = -9.889428 KinEng   = 0.705641 Lx       = 24.919948 
Ly       = 24.919948 Lz       = 24.919948 Volume   = 15475.382481 
Density  = 0.989735 
---------------- Step   700000 ----- CPU =   1196.2617 (sec) ----------------
Time     = 5500000.000000 Temp     = 238.846708 Press    = -936.774086 
PotEng   = -9.885068 KinEng   = 0.710566 Lx       = 24.830851 
Ly       = 24.830851 Lz       = 24.830851 Volume   = 15309.985842 
Density  = 1.000428 
---------------- Step   720000 ----- CPU =   1230.2254 (sec) ----------------
Time     = 5600000.000000 Temp     = 224.042924 Press    = 206.361013 
PotEng   = -9.825239 KinEng   = 0.666525 Lx       = 24.812446 
Ly       = 24.812446 Lz       = 24.812446 Volume   = 15275.967402 
Density  = 1.002656 
---------------- Step   740000 ----- CPU =   1264.5358 (sec) ----------------
Time     = 5700000.000000 Temp     = 233.532560 Press    = 180.725142 
PotEng   = -9.857945 KinEng   = 0.694757 Lx       = 24.793739 
Ly       = 24.793739 Lz       = 24.793739 Volume   = 15241.443334 
Density  = 1.004927 
---------------- Step   760000 ----- CPU =   1298.6017 (sec) ----------------
Time     = 5800000.000000 Temp     = 246.018397 Press    = 440.328532 
PotEng   = -9.948429 KinEng   = 0.731902 Lx       = 24.781990 
Ly       = 24.781990 Lz       = 24.781990 Volume   = 15219.785039 
Density  = 1.006357 
---------------- Step   780000 ----- CPU =   1332.9756 (sec) ----------------
Time     = 5900000.000000 Temp     = 249.715477 Press    = -1248.059135 
PotEng   = -9.891860 KinEng   = 0.742901 Lx       = 24.815485 
Ly       = 24.815485 Lz       = 24.815485 Volume   = 15281.581122 
Density  = 1.002287 
---------------- Step   800000 ----- CPU =   1367.2901 (sec) ----------------
Time     = 6000000.000000 Temp     = 233.307754 Press    = -371.752405 
PotEng   = -9.817857 KinEng   = 0.694088 Lx       = 24.885233 
Ly       = 24.885233 Lz       = 24.885233 Volume   = 15410.798345 
Density  = 0.993883 
---------------- Step   820000 ----- CPU =   1401.4282 (sec) ----------------
Time     = 6100000.000000 Temp     = 251.051397 Press    = -52.403230 
PotEng   = -9.922495 KinEng   = 0.746875 Lx       = 24.824264 
Ly       = 24.824264 Lz       = 24.824264 Volume   = 15297.805775 
Density  = 1.001224 
