LAMMPS (4 Jan 2019)
Reading data file ...
  orthogonal box = (0 0 0) to (24.859 24.859 24.859)
  1 by 1 by 2 MPI processor grid
  reading atoms ...
  512 atoms
Finding 1-2 1-3 1-4 neighbors ...
  special bond factors lj:   0          0          0         
  special bond factors coul: 0          0          0         
  0 = max # of 1-2 neighbors
  0 = max # of 1-3 neighbors
  0 = max # of 1-4 neighbors
  1 = max # of special neighbors
Neighbor list info ...
  update every 1 steps, delay 0 steps, check yes
  max neighbors/atom: 2000, page size: 100000
  master list distance cutoff = 6.3065
  ghost atom cutoff = 6.3065
  1 neighbor lists, perpetual/occasional/extra = 1 0 0
  (1) pair sw, perpetual
      attributes: full, newton on
      pair build: full/nsq
      stencil: none
      bin: none
Per MPI rank memory allocation (min/avg/max) = 6.957 | 6.957 | 6.957 Mbytes
---------------- Step     1000 ----- CPU =      0.0000 (sec) ----------------
Time     = 0.000000 PotEng   = -10.139082 
---------------- Step   500000 ----- CPU =      2.1940 (sec) ----------------
Time     = 0.000000 PotEng   = -10.089806 
Loop time of 2.19415 on 2 procs for 500 steps with 512 atoms

Performance: 19.689 ns/day, 1.219 hours/ns, 227.878 timesteps/s
96.1% CPU use with 2 MPI tasks x no OpenMP threads

MPI task timing breakdown:
Section |  min time  |  avg time  |  max time  |%varavg| %total
---------------------------------------------------------------
Pair    | 0          | 0          | 0          |   0.0 |  0.00
Bond    | 0          | 0          | 0          |   0.0 |  0.00
Neigh   | 0          | 0          | 0          |   0.0 |  0.00
Comm    | 0          | 0          | 0          |   0.0 |  0.00
Output  | 0          | 0          | 0          |   0.0 |  0.00
Modify  | 0          | 0          | 0          |   0.0 |  0.00
Other   |            | 2.194      |            |       |100.00

Nlocal:    256 ave 259 max 253 min
Histogram: 1 0 0 0 0 0 0 0 0 1
Nghost:    925.5 ave 927 max 924 min
Histogram: 1 0 0 0 0 0 0 0 0 1
Neighs:    0 ave 0 max 0 min
Histogram: 2 0 0 0 0 0 0 0 0 0
FullNghs:  8556 ave 8709 max 8403 min
Histogram: 1 0 0 0 0 0 0 0 0 1

Total # of neighbors = 17112
Ave neighs/atom = 33.4219
Ave special neighs/atom = 0
Neighbor list builds = 0
Dangerous builds = 0
Total wall time: 0:00:02
