LAMMPS data file via write_data, version 4 Jan 2019, timestep = 4000000

512 atoms
1 atom types

1.7713111225469369e-01 2.4657868887748826e+01 xlo xhi
1.7713111225469369e-01 2.4657868887748826e+01 ylo yhi
1.7713111225469369e-01 2.4657868887748826e+01 zlo zhi

Masses

1 18.0153

Atoms # atomic

291 1 1.0485794003278173e+01 3.1743202403015713e+00 6.4357503500758302e+00 31 108 77
329 1 1.7041097275920400e+01 6.3929879169496990e+00 1.6064106796126267e+00 14 -121 -60
278 1 1.5602759482616024e+01 4.4473296117418561e+00 3.2090431883336734e+00 -87 -102 54
452 1 1.6823770545415790e+01 2.2417823104161250e+00 1.5611210608765977e+00 13 2 90
89 1 6.8505080455621119e+00 4.4690313149685768e+00 6.4922978717284181e+00 -8 9 -173
466 1 1.9709394846934117e+01 5.3891794033131024e+00 5.7616051115632461e+00 110 -29 -20
39 1 4.9387411071130014e+00 7.6708538597478935e+00 7.8873493641016825e+00 6 33 54
273 1 2.2579699245380973e+00 4.0884291045297942e+00 8.2270944775215114e+00 80 176 125
487 1 1.2316702515687806e+01 9.6047626239691142e-01 2.6770288514743092e+00 28 42 -2
3 1 3.7703275942372372e+00 6.5853002012939044e+00 1.4150925153950227e+00 13 51 23
484 1 2.2880154743524933e+01 1.0223006340750604e+01 6.5941236574590230e+00 -45 -19 94
442 1 1.2427060151846728e+01 1.5356381561744377e+00 7.4923761248586898e+00 17 -9 -104
443 1 7.6950590946560498e+00 1.0689270804615838e+01 5.4946120129074503e+00 -105 24 -12
382 1 2.3087231616417291e+01 2.2136976653545757e+00 6.3266352730306066e+00 43 -11 55
327 1 5.5404541781567760e+00 1.0097784277122837e+00 3.0573295798637190e+00 85 -1 4
69 1 1.2152146071752203e+01 9.7972621089385008e+00 5.7652229443345835e+00 -17 2 1
421 1 1.0131774594684250e+01 1.1832725118251748e+01 5.3496674442487011e+00 24 3 76
184 1 9.3846483796121074e+00 3.9965761867202770e-01 2.0859512650937440e+00 -4 10 36
224 1 1.9753836061998669e+01 7.0572019209420738e+00 2.1119877932183782e+00 61 -91 9
216 1 7.1485937201982788e+00 8.3575433781510071e+00 4.1331482927771814e+00 -33 -2 162
342 1 7.6011365954935570e+00 8.8405034163958085e+00 5.2347519661282127e-01 34 -12 18
270 1 1.4473209770676396e+01 1.0563086252679774e+01 7.0752011766387666e+00 19 133 108
196 1 5.7523670483096838e+00 4.5761116141679574e+00 1.1097466471136892e+00 6 22 10
217 1 1.1014839325494281e+01 8.1918330962580530e+00 2.4784408100429332e+00 93 -45 81
133 1 2.4520319314178366e+01 6.2392464482488208e+00 4.2042022700908008e+00 -32 75 -50
405 1 2.0872113793840292e+01 3.8907695216615821e+00 3.7596139874529677e+00 -27 0 49
82 1 2.7947214859533602e+00 1.0994589075124257e+01 5.8294975011583334e+00 -7 -1 2
28 1 9.2430938591626148e+00 1.0665894882461256e+01 1.6104584573281189e+00 17 35 29
204 1 2.1128062054847817e+01 4.1997911007473626e-01 1.3431151800020291e+00 13 -23 -186
10 1 1.7079273423163784e+01 8.9861342714391554e+00 2.8089495249684844e+00 -86 60 -21
363 1 1.5786782515033845e+01 8.6105529161370615e+00 5.4125977549882238e+00 -15 -37 23
181 1 9.7371703581766245e-01 9.5691474218568615e+00 7.3493036145541204e+00 79 72 -51
414 1 3.8834105258174509e+00 1.1018681748072678e+01 3.1532870271956468e+00 100 8 65
447 1 1.3104556985129705e+01 3.4018154705514614e+00 3.8543609057177055e+00 -8 -116 19
236 1 5.2720122953011526e+00 8.9086912716527848e+00 1.9938849603217912e+00 39 81 71
244 1 7.2235587496863141e-01 1.4590166635981308e+00 2.4205079373249809e+00 -42 67 11
308 1 1.9820126748290477e+01 7.9005330894535675e+00 4.9048363434511248e+00 49 113 59
305 1 7.8659898207113610e+00 2.6945615693266025e+00 1.3498306325068770e+00 16 87 31
434 1 1.4401626357724062e+01 1.5197261450791002e+00 5.5151347779690356e+00 39 -31 -85
226 1 2.3977083397791525e+01 9.4303428010728023e+00 3.2777957964752904e+00 0 3 1
387 1 1.4407768018525966e+01 7.6294346465168612e+00 1.1495023671431397e+00 72 -26 133
255 1 3.5765314858929695e+00 9.6584886692191319e-01 5.8787019114281547e+00 -130 3 81
118 1 2.0207635144614521e+01 2.8883592933259061e+00 6.9338329579013074e+00 -31 135 -83
26 1 2.3681479102032000e+01 3.3501444095933612e+00 3.9831649280466546e+00 -20 20 62
12 1 5.2574688660960769e+00 2.4970213641059225e+00 7.4071662592514693e+00 51 -38 68
274 1 1.1155342913536579e+01 7.4913802522582600e+00 6.7670776975476441e+00 -48 33 7
399 1 2.1863068313866987e+00 8.8182452032249632e+00 3.8813798803629678e+00 20 67 -19
66 1 1.2892836552828159e+01 5.0673764981607334e+00 5.9367496492702516e+00 -21 29 -30
287 1 1.6985223195765187e+01 4.7730178184626366e+00 5.4154414899831451e+00 -16 -3 -9
317 1 3.1206325263768848e+00 6.0464313968674697e+00 4.1961032404498182e+00 116 -25 -32
292 1 2.2713226896609768e+01 8.3576118257906948e+00 1.2381245803918968e+00 -13 27 65
148 1 2.3588320784751552e+01 5.3879326219845671e+00 1.7777836147761670e+00 -49 42 71
100 1 1.7249679002310941e+01 2.2108187431762336e+00 6.2069074336280359e+00 42 -127 -18
208 1 2.1449004066902454e+01 1.0276723246192979e+01 4.2608106399657037e+00 19 84 -7
469 1 1.3674327828889142e+01 9.3821763255278618e+00 3.2005960685096295e+00 40 22 27
392 1 1.3372594295948984e+01 1.2171076063191713e+01 2.0280692794624642e+00 22 7 -62
427 1 1.8266773394332013e+01 9.5750729830907542e+00 6.2302930201833187e+00 124 -12 30
146 1 1.8210817683834939e+01 1.1569044476638080e+01 2.6635217782303031e+00 -11 -14 5
170 1 3.1938914384436496e+00 2.3251808449956468e+00 3.4897390476316192e+00 7 37 -21
281 1 5.2006271424465140e+00 1.0402264748661194e+01 7.1169561777727912e+00 37 -35 105
341 1 2.0149717110126041e+01 9.6872085021270138e+00 1.7905088486095622e+00 39 -39 63
384 1 2.1017746171828996e+01 4.5888877052884167e+00 9.3974877977538118e-01 3 7 7
32 1 5.6527187051276782e+00 6.7271938765957886e+00 5.6974806205254298e+00 -55 104 -44
313 1 1.7449971942883691e+00 3.8843286466849687e+00 5.4160958554723457e+00 -47 37 37
40 1 1.0223876799950459e+01 4.5384076890451723e+00 4.7635952301239348e-01 -3 42 56
251 1 9.5545265718487755e+00 7.0596842696492335e+00 4.2531636201014793e+00 -42 32 -50
157 1 6.4739521936870426e-01 1.2271575851902192e+01 5.1773635306591248e-01 -10 -17 67
500 1 8.4462894610934303e+00 3.3195775388984594e+00 4.2508890415140783e+00 75 -73 54
391 1 7.7973016290858101e+00 3.2546113105139940e-01 4.7745941338293667e+00 -78 -36 -5
262 1 1.6215315241226797e+01 1.2299079850678931e+01 8.2271856656795688e+00 5 48 -42
379 1 1.0725818891437463e+01 4.3913239628977552e-01 5.2634011294802789e+00 142 -10 62
339 1 1.0635936427386174e+01 4.4054490041190340e+00 3.1509492106173509e+00 31 42 -3
486 1 1.0877070885431843e+01 1.2256011312756421e+01 8.2303096661916939e+00 45 13 -15
357 1 1.9342799319767821e+01 1.6921142147309618e+00 2.7912541925066514e+00 2 -19 -11
2 1 4.4752299399824587e+00 2.2394811903146152e+00 5.1696338977791600e-01 -49 6 -10
91 1 2.2617122357161357e+01 7.2112843622819787e+00 5.9077591511737957e+00 -29 6 21
371 1 1.5096434292674878e+01 5.9135873459573540e+00 6.9277343593734271e+00 -74 35 -60
143 1 2.2829116384997405e-01 1.2120627837334442e+01 3.4535164728937091e+00 43 -2 -2
440 1 8.8786742704941346e-01 5.4859352744645662e-01 6.4874198578796261e+00 -29 -29 114
44 1 1.5901272235120421e+01 9.8679547777364700e+00 3.3010074853672100e-01 -24 -33 92
316 1 1.0092714760857975e+01 9.4566443908248026e+00 8.1415580705353854e+00 40 118 74
168 1 4.8970440713591096e-01 6.7369327707085187e+00 7.7369872876176187e+00 91 -55 -58
464 1 7.0590615844151836e+00 1.7758314799245767e-01 7.3827907223224409e+00 8 14 -17
152 1 4.9695833577716293e+00 1.0860509414181733e+01 9.7577809264982118e+00 -56 -149 -9
320 1 1.6984928203638255e+01 1.1522243240274264e+01 1.1161051543623223e+01 23 90 39
293 1 1.6571820640617076e+01 1.9186215884063422e+00 8.6849615000302265e+00 8 136 56
92 1 2.5963541266498908e+00 1.9286201451690126e+00 1.5863630345535212e+01 -50 50 -106
474 1 2.4058859851363650e+01 4.8061257431963389e+00 1.0425532898712182e+01 -15 -59 -30
378 1 1.9818476655820760e+01 5.2669556978110634e+00 1.2158667197078461e+01 18 -17 -61
449 1 2.2773092962659113e+01 8.4001636833284099e-01 1.0786116121115038e+01 -61 67 31
24 1 5.7427856181806369e+00 1.1201272717961903e+01 1.3287880305161172e+01 29 -57 65
77 1 1.2915227673276190e+01 8.2951743487647107e+00 1.5470372000501849e+01 52 -28 8
481 1 8.7076243691190776e+00 5.0223082871533409e+00 8.3912536567295302e+00 40 -8 -15
361 1 3.3634472265256630e+00 5.1431354462041936e+00 1.1913638489505624e+01 -51 113 -7
424 1 2.3775036858145860e+01 8.9545114509057164e+00 1.5640124489386857e+01 39 0 -12
502 1 4.4699475767518377e+00 3.9831459644247702e+00 1.4352397987490029e+01 -44 -28 -47
268 1 2.9398893535416835e+00 6.3644705363013481e+00 9.4027452157895102e+00 -121 -6 0
144 1 7.7623240978153065e+00 3.3699927035134820e+00 1.3804984668593622e+01 -20 40 55
171 1 9.4743745655727665e+00 1.1009567281170611e+00 8.8943999171800474e+00 -31 40 11
193 1 2.1079903457018830e+01 1.0114292730374126e+01 8.4341508013782533e+00 -75 20 -9
42 1 1.9765002652046659e+00 6.0542949112278155e+00 1.4110543785675530e+01 2 78 -69
175 1 1.7323058387324174e+01 5.5722028946074857e+00 1.0837008913338568e+01 37 1 -23
404 1 5.7091578786818857e+00 6.6580803024687896e+00 1.2338070825764042e+01 -20 133 50
15 1 1.0496689439866393e+00 3.2188021757018150e+00 1.2319650359793179e+01 8 -8 -139
88 1 1.3043983892541704e+01 3.3326097418659937e+00 9.8978188312948348e+00 -28 23 61
323 1 1.9554620471493891e+01 8.0308366034611449e+00 1.2365761668218004e+01 20 -116 18
498 1 1.9727088027081429e+01 1.0938816104692595e+01 1.2102662056202751e+01 36 19 5
271 1 1.8879304308681398e+01 1.1534435012646144e+01 1.4819911442383237e+01 35 27 -54
389 1 2.2517945563691065e+01 2.0856231467242416e+00 1.4273862382761308e+01 3 79 -12
243 1 2.5556015464065773e-01 3.8568659611748362e+00 1.5294126364617583e+01 13 -38 -10
328 1 1.1176682000952553e+01 3.9640994356180501e+00 1.6094993947903411e+01 75 81 -17
261 1 6.9837838452895695e-01 1.2336289063947321e+01 1.1971430448476546e+01 11 32 -115
258 1 1.3025779431363100e+01 4.6274869964802195e-01 1.0317147248360095e+01 126 -57 63
439 1 1.5449508290982399e+01 7.1598120260684057e+00 1.4930146922547337e+01 25 -41 -73
27 1 1.6168833322322048e+01 9.9331696746362024e+00 1.5677689798726499e+01 9 -27 49
269 1 1.7143908505503695e+01 3.2220618848144924e+00 1.4090237173272333e+01 18 -33 2
245 1 4.7010603305504279e+00 1.0474852005048489e+00 1.3859388419383746e+01 -17 8 88
358 1 2.2286509974339658e+01 6.3927754853313381e+00 8.8385114181167488e+00 -31 91 42
475 1 2.1844589864835786e+00 1.1252272609768058e+01 1.4368499138210913e+01 12 -11 -20
45 1 1.1937525476823524e+01 7.1734342771998181e+00 1.0495316581231259e+01 4 86 -76
198 1 1.0004150740710365e+01 8.0964011256014139e+00 1.2282291454298456e+01 -41 40 10
51 1 9.5480068191771341e+00 5.7878279937417334e+00 1.4517124363305239e+01 44 -11 -42
101 1 8.4038124208957807e+00 9.0281762327952055e+00 1.0364641179917555e+01 -33 -27 64
501 1 2.0420517474996963e+01 2.1677461139360084e+00 1.5804997692761285e+01 35 -19 -11
54 1 2.1940295191556963e+01 3.5148319989502661e+00 1.2103563459629440e+01 -7 12 48
451 1 1.1462057987001467e+01 5.2689860756361897e+00 8.4706831058128529e+00 73 36 -20
203 1 1.2974922757391845e+01 2.1268102170965344e+00 1.5091716393359105e+01 107 -112 77
249 1 1.4273751026011166e+01 7.5420620745137015e+00 1.2065955714805739e+01 -67 -45 -30
55 1 6.7134872555020157e+00 7.0835616531360523e+00 9.7043229794854717e+00 31 68 -15
136 1 1.9490979879436054e+01 4.7233115942520563e+00 1.4839874302132479e+01 38 -66 110
386 1 9.0772126223296432e+00 1.8991273739356886e+00 1.6088040163671163e+01 85 -45 3
412 1 1.7448178254279050e+01 7.1277720884561746e-01 1.2899303669046219e+01 -27 20 -63
423 1 1.1907106498475624e+01 9.7103309970474161e+00 1.3178233894684437e+01 -13 5 61
362 1 1.5629508783565685e+01 4.4406506238731964e+00 9.0228726126682712e+00 -60 -19 -65
86 1 6.5918147839357175e+00 1.7323409737890050e+00 1.1743498342296011e+01 -34 -64 83
507 1 6.4441937595735075e+00 7.5881731355227333e-01 1.6201074564345859e+01 -56 23 -20
6 1 1.3129029154928919e+01 3.6455783043836294e+00 1.2635688481681534e+01 80 15 -29
354 1 1.2370133275670399e+01 1.2110300177980804e+01 1.0802991450863406e+01 7 51 16
37 1 2.2229304208450841e+01 7.0827181404546202e+00 1.1567074822676597e+01 49 22 -40
479 1 1.2743444255102925e+00 9.0784441858665144e+00 1.2308941427127673e+01 -31 -19 -46
7 1 1.5010515098011094e+01 8.4074743132121714e+00 8.8745776606984599e+00 46 10 58
50 1 2.4611947819666849e+01 4.7664178253015405e-01 1.2849789168716095e+01 12 31 -30
229 1 2.3946283762593879e+01 7.0533636381750613e+00 1.3631071462438950e+01 43 25 18
472 1 1.8886834598170896e+00 1.0836433712113653e+01 9.9167840602532564e+00 30 -32 64
98 1 5.3290194016306831e+00 8.0901093967393223e+00 1.6350702472997426e+01 66 75 -4
381 1 9.0424771644862112e+00 3.2037349230537822e+00 1.0615232969146783e+01 19 -105 33
402 1 1.4451824733419626e+01 1.0704579031030237e+01 1.1810053091333831e+01 29 59 -30
400 1 7.3432458023233211e+00 7.3065117834493369e+00 1.4582772787028198e+01 59 18 -32
431 1 4.1655352897658551e+00 8.8748233692291887e+00 1.2135879428993723e+01 -61 -31 -25
117 1 1.0818792564973691e+01 4.7914291797086657e+00 1.2114340892245037e+01 49 50 84
138 1 1.0883164318373478e+01 3.3595416925157368e-01 1.4456885381889107e+01 180 40 25
78 1 1.7023534087521078e+01 8.5133849653150833e+00 1.1045600728892019e+01 -19 -58 -24
156 1 8.0646589646970099e+00 1.0271877482670076e+01 1.4956923465394548e+01 47 33 -22
497 1 4.4544846944460481e+00 2.8199809853656577e+00 1.0037304179979282e+01 0 23 21
95 1 2.2041467159391019e+01 5.3359178977384891e+00 1.5296062979152902e+01 52 128 0
124 1 2.2146820510806585e+01 1.0115914049116467e+01 1.3511276304886437e+01 -50 155 -25
121 1 2.8102275506205165e+00 8.6322913059195940e+00 1.5367811705287707e+01 -12 7 3
410 1 7.5027514898044645e+00 1.1559301132716493e+01 1.0928877506459425e+01 20 130 7
150 1 2.2706630703479405e+01 9.7065656503642312e+00 1.0575397260599479e+01 76 -31 72
338 1 1.5502148444045959e+01 5.0271126073430361e+00 1.2875855912241212e+01 -9 3 39
234 1 2.0093964943918522e+01 9.0351910589704882e+00 1.5054985113965049e+01 75 -16 23
145 1 1.0411659871416205e+01 1.1878516070260718e+01 1.4395568783322938e+01 32 -10 -46
432 1 1.4574580485287088e+01 9.5665696284409152e-01 1.2966862878880349e+01 36 -51 4
106 1 1.2974374213388176e+01 1.2133070634977610e+01 1.5673527094140121e+01 15 -14 1
149 1 1.2594079108751698e+01 9.6725520164712702e+00 9.4094235293076629e+00 -50 61 -6
206 1 1.9132980830951801e+01 3.2242092390604555e+00 9.4446050686117324e+00 17 -87 27
192 1 2.8032621169195077e-01 2.1945826181032846e+00 9.0481229546488180e+00 -87 66 -58
252 1 1.9808013514947007e+01 1.1773789011638065e+00 1.1368676195853054e+01 -49 -77 7
5 1 2.3520148638462706e+00 8.1446620367390221e-01 1.0713424091687710e+01 43 45 0
159 1 1.8658219795231091e+01 8.3760640763605494e+00 8.7972776188827790e+00 -44 44 102
33 1 1.7983697488980042e+01 6.7301683484297854e+00 1.5897731631376164e+01 -102 -36 -20
450 1 6.4595530950010573e+00 3.4294382765967035e+00 1.6349773999633079e+01 122 -82 23
336 1 1.9607585190889431e+01 5.7269530644489341e+00 8.8541991845605654e+00 46 -16 -129
355 1 1.4382714910445152e+01 1.0080937803642975e+01 2.2541722550269114e+01 -35 -7 66
162 1 6.4826548869217921e+00 6.3744458719694892e+00 2.3650711863567487e+01 -43 6 6
80 1 3.6421676060667290e+00 4.6049730663044768e+00 2.0905872488658943e+01 30 45 11
25 1 1.2974404703845824e+01 1.2098607672730125e+01 2.3725434490313930e+01 61 -79 -62
180 1 1.7381076685624421e+01 6.5150536235027809e+00 1.8813182184255588e+01 1 287 -23
265 1 9.3811677122362909e+00 9.7855139502694826e+00 1.7758029238755071e+01 -76 -51 59
135 1 1.9329883927808488e+01 1.0613454313900764e+01 1.9574334863300280e+01 3 59 -67
426 1 1.9561918753677347e+01 7.9019741897717335e+00 1.9466985145604070e+01 86 -12 66
326 1 9.9516114285080235e+00 1.2167359790592872e+01 2.3671729534521596e+01 43 116 -12
120 1 7.7890803119839882e+00 5.8871793915735804e+00 1.7134270131655803e+01 -3 -65 69
231 1 3.5525336969341672e+00 7.1571325278091305e+00 1.9884842095668297e+01 -40 14 35
128 1 4.6158916867850541e+00 8.0951545123642923e+00 2.2200560048449233e+01 18 6 -25
446 1 2.7421733663205177e+00 4.8089728896383930e+00 1.6793029084280654e+01 25 29 -12
385 1 2.1604712209311003e+01 8.6984575024318573e+00 1.7451396869451536e+01 52 31 41
334 1 1.3848198217519956e+01 6.2992667219999152e+00 2.1649085080281978e+01 40 67 16
490 1 5.8364957542515334e+00 9.0465541003161487e+00 1.9541933970291858e+01 17 -92 6
344 1 2.4467980757177741e+00 9.7439295786741287e+00 2.1878506845087152e+01 35 -48 7
151 1 1.6972235488572672e+01 1.0737562899017611e+01 1.8307660863469032e+01 -45 -36 -10
368 1 7.3288908036750220e+00 5.3980786130398943e+00 2.1116123771394420e+01 48 -34 49
364 1 1.5235595877158438e+01 2.9140172143420733e+00 2.3333952051746259e+01 110 11 -10
511 1 1.2598914149861864e+01 8.1896343532636333e+00 2.3589431543913079e+01 49 10 100
46 1 2.1989875488875199e+01 8.6170397565613843e+00 2.3015104423826948e+01 40 -11 61
282 1 9.7649267866655158e+00 7.0299048675608251e+00 2.1603345769028401e+01 34 28 76
199 1 1.0656047252674224e+01 4.4876312440537527e+00 2.1439668910850244e+01 21 69 -29
283 1 5.2543833103848367e+00 3.2017703225611918e+00 1.9258462543415419e+01 84 -38 64
132 1 1.3272484319724965e+01 8.5995967674725726e+00 1.9810688399236511e+01 -47 2 -68
456 1 2.2249157614220955e+01 1.1095016413759605e+01 1.9086483343771739e+01 -33 -36 11
480 1 1.0563720692614799e+01 9.1766063328157124e+00 2.0341514625931083e+01 11 -54 76
35 1 1.4029969118764154e+00 9.9374191719967597e-01 2.4216836034689479e+01 -50 30 -42
266 1 1.7408618573339098e+01 5.7185994669906637e-01 2.3971365780279704e+01 27 -57 13
401 1 1.7124042455025915e+01 4.2542155661600791e+00 2.0647231627526658e+01 33 6 23
214 1 1.9541358117589709e+01 3.5805280204282210e+00 2.2042346295893218e+01 24 99 -3
240 1 2.3811735938503737e+01 1.0415500349997803e+01 2.1235968722486149e+01 -220 139 66
60 1 6.6697696973034288e+00 1.0532394795388560e+01 1.7160336363071181e+01 -69 -21 63
349 1 9.9372325797261318e+00 7.5498390649791922e+00 2.4194732022158114e+01 0 27 51
433 1 1.5904698202220728e+00 3.6897173773825647e+00 1.9396712299994661e+01 16 -49 -40
52 1 2.3483112893306057e+01 6.2398129057096670e+00 2.2168682271236271e+01 97 -92 132
129 1 1.1712435580152130e+01 3.6247528549565358e+00 1.8875557728509634e+01 -49 -32 -82
415 1 1.6085837715844399e+01 8.0796072694373144e+00 2.0850568229016744e+01 -58 -46 20
370 1 2.1298818602551798e+01 2.3374204523437370e+00 2.4004418852943360e+01 -25 110 33
422 1 4.9202702609135951e+00 5.8563430656603126e+00 1.8029339931109497e+01 -12 74 66
499 1 2.4486556059858358e+01 1.7670702444202246e+00 1.7626409496094453e+01 37 -28 -69
420 1 1.3715689521169098e+01 9.8685688629550370e+00 1.7275125851551913e+01 31 -23 113
394 1 2.0609605432149692e+01 6.4881992451945285e+00 2.1447853523832045e+01 -105 -1 -18
164 1 7.6608733203808148e+00 2.5824244381235881e+00 2.0627251667323634e+01 55 23 142
189 1 1.6460233059687880e+01 1.5410058649714877e+00 1.9622592882727531e+01 117 -42 -34
188 1 3.3292920445509488e+00 1.3321336890019122e+00 1.8705290593416827e+01 5 -4 64
304 1 4.7986404104729191e-01 6.0155143152898809e+00 1.8328688503349873e+01 -21 -54 117
260 1 1.0374949048795770e+01 7.5111787097997080e+00 1.6669295325565038e+01 -36 1 62
455 1 8.1700617209849575e+00 7.6652084247628487e+00 1.9179031470810870e+01 51 102 25
430 1 1.8949433210721246e+01 6.1084996761494450e+00 2.3699925302296442e+01 50 48 2
127 1 2.1932075451106591e+01 1.7290227537587637e+00 1.8503049868629887e+01 50 68 79
294 1 8.8590454398299627e+00 1.1369866044007367e+01 2.1333910815321758e+01 32 36 -81
454 1 2.4198984049493979e+00 3.5570916151140755e+00 2.3286887589411272e+01 -51 49 15
335 1 1.1899758639266276e+01 6.4084932126810008e+00 1.8671402770343548e+01 21 -20 92
445 1 2.3872058615404590e+01 3.6912481938750994e+00 2.0946086476554470e+01 117 69 -2
407 1 2.1293002150422076e+01 4.1807425645560841e+00 1.9737184625586345e+01 23 6 59
397 1 1.8497008608570617e+01 9.2736453194383150e-01 2.1267029263912484e+01 -49 49 -42
380 1 2.3382120305236803e+01 1.3507006757422870e+00 2.2305234671722701e+01 -9 85 58
343 1 8.6078585799401430e-01 7.5877517375020407e+00 2.0600901111688060e+01 -67 17 144
141 1 9.5195343957496235e+00 1.5779237765254448e+00 1.8777919020243090e+01 95 80 -10
187 1 6.0658507051753512e+00 1.1408651099809051e+01 2.1194989603598600e+01 3 20 -15
65 1 9.0992476092808037e+00 2.4752064377006660e+00 2.3019723053426503e+01 -33 72 -14
202 1 3.3615211085304302e+00 1.0432302488584702e+01 1.9129374144376676e+01 25 92 -20
253 1 1.4392794918767557e+01 3.4253067133922279e+00 2.0724413504674338e+01 2 11 -5
75 1 2.2406608656804018e+01 6.1731180807853381e+00 1.7885561776847112e+01 14 38 6
366 1 1.3976611849848608e+01 2.4106484601799765e+00 1.7815480698018305e+01 160 -6 -49
191 1 5.6840930855851690e+00 1.0246609444209298e+01 2.3541994799397344e+01 45 -9 -25
478 1 6.6955324844682469e+00 7.2214239808139646e-01 2.3645120632684240e+01 31 -8 30
489 1 1.3355594228964565e+00 8.6366216638781523e+00 1.7692139701279409e+01 71 187 -50
178 1 5.3300892432199609e-01 1.1266653286686354e+01 1.8430233728016596e+01 68 30 -58
297 1 7.6051938971720845e-01 5.6626480547293658e+00 2.4048399109347663e+01 7 29 -13
441 1 1.6221978847602699e+01 5.6435976333664577e+00 2.3205900500957874e+01 3 -65 -17
276 1 1.8209731832223071e+01 8.7406820040341611e+00 2.2710901072402251e+01 30 166 -22
306 1 1.6546725153674132e+01 2.1601791665983319e+00 1.6761122400579737e+01 -4 66 -65
19 1 1.0709865234884435e+00 1.2344720910693278e+01 2.2245822317783556e+01 6 52 80
173 1 1.9940817656537504e+01 1.0600150821014553e+01 2.3415565255111190e+01 38 57 -1
219 1 5.3131491231982615e+00 8.0691383863825883e-01 2.1154028495471152e+01 -21 -17 -110
467 1 1.2631750668781761e+01 3.7752985695123411e+00 2.3751197827689083e+01 -62 104 51
331 1 2.4860595962725620e+00 7.7959768844962101e+00 2.4008162144039346e+01 34 21 -9
18 1 3.1871549538504335e-01 9.5433378897351844e+00 2.4052681314780699e+01 58 58 45
403 1 1.5738677853172460e+01 1.1955458724255216e+01 2.0783072194345117e+01 -72 51 10
122 1 1.7847716294273923e+01 1.2006631067253338e+01 2.4546221391263003e+01 10 8 11
369 1 1.2453448435620695e+01 8.5206370485996041e-01 2.4230182904279026e+01 -4 58 2
113 1 3.3579126222284250e+00 1.1579203860722922e+01 2.4654538504666377e+01 -49 20 87
418 1 1.4614474368432226e+01 2.2269512901756173e+01 7.0649215740209859e-01 -77 -66 -17
359 1 7.7257849829352336e+00 1.6630825540425889e+01 5.3317681005099820e+00 -37 43 9
458 1 1.6162353330735542e+01 2.1684218364461074e+01 3.0612081284636834e+00 -35 45 3
301 1 9.9484658721014032e+00 2.2049831694324673e+01 2.4064916601920907e+00 122 25 29
53 1 9.3337388753979518e+00 1.3125036924407279e+01 2.9819329243406485e+00 58 104 143
332 1 5.8924937753594806e+00 2.3462559235031364e+01 1.2314779060439029e+00 15 -23 -100
68 1 2.1345388407603643e+01 2.4357246951882715e+01 6.0064305126222264e+00 2 -17 11
373 1 4.4719013119955644e+00 2.1646006680249123e+01 6.9706652357463934e+00 57 42 -47
79 1 1.6211703600604217e+01 1.5563115582890026e+01 2.6853760531025652e+00 -6 -94 98
223 1 1.5446930269690514e+01 1.9658241884667788e+01 7.2981705312250762e+00 106 36 7
242 1 2.1275608743775472e+01 1.9362935052456265e+01 7.8954930946553281e+00 12 4 -54
377 1 2.1347562296108158e+01 1.5026808698781140e+01 6.5828949670466919e-01 9 14 -106
222 1 2.1011658271432914e+01 1.7853478900801271e+01 5.6131933470756854e+00 26 56 51
139 1 1.8531876181948768e+01 1.9030328625431459e+01 4.8241890139770804e-01 -9 -5 -15
174 1 1.9763030349245838e+01 1.4969196051997066e+01 6.2661721217183413e+00 12 90 -21
503 1 9.1123536213559007e+00 1.5670811285254340e+01 1.8399675276884331e+00 -4 -3 26
254 1 2.2413695467412360e+01 1.5048752553156879e+01 5.7079813300618012e+00 44 89 43
413 1 1.8992083032095778e+01 1.8324167734040088e+01 3.2899904508502718e+00 -17 9 -23
107 1 2.5654814002785327e+00 1.4661485772594657e+01 3.1326747960576968e+00 -31 56 -134
352 1 3.2981481881997317e+00 1.6968716445584185e+01 4.3960512167337867e-01 44 -45 -66
337 1 1.2078400005994629e+01 2.0983376095157048e+01 9.2262197295542070e-01 28 10 -43
504 1 1.5890584236184786e+01 1.9869242346528999e+01 8.2769458757383807e-01 -34 -29 43
314 1 1.4995991646465015e+01 2.4344524668755618e+01 2.8980233328529872e+00 -10 15 -6
353 1 1.7623764781929147e+01 1.6770405421672443e+01 6.6655370316918532e+00 -168 62 102
126 1 1.7193427398409007e+01 1.9230796951452547e+01 5.1312999439401441e+00 -29 -37 -35
296 1 1.9977194471115176e+01 1.2937785730389784e+01 4.0480203157315637e+00 -38 -106 59
473 1 1.2285066947640523e+01 1.3704060569342944e+01 5.6721888013300070e+00 -38 -36 69
277 1 1.2591509405016012e+01 1.9564686314997523e+01 7.4736942495380783e+00 43 9 103
330 1 1.4854717285592860e+01 1.3180592149326488e+01 5.6804728627508192e+00 -13 29 33
225 1 1.0890124679041110e+01 2.1894891218211129e+01 7.6257856484066506e+00 18 76 17
29 1 1.4893208801411966e+00 1.9916911479256683e+01 7.1888208889049849e+00 58 -39 -29
310 1 1.1536314925426231e+01 2.1948406152849742e+01 4.9822012873687109e+00 -14 -16 14
461 1 2.5265327089771938e+00 2.2315773371612345e+01 3.1526733579440842e+00 7 25 -11
444 1 7.2035337489049223e+00 2.1927970936330176e+01 3.3402398115785981e+00 -3 -26 21
416 1 2.3872687814400713e+01 1.8408016034255198e+01 3.2348903735527168e+00 -13 -32 27
279 1 9.0657730839694555e+00 1.8363450271709702e+01 2.3858254189776917e+00 -35 160 49
495 1 1.8658443368611799e+01 2.4423001711379548e+01 5.1737140571063440e+00 -31 13 -58
201 1 5.0952182420440515e+00 1.9212581296193775e+01 6.1636685545645635e+00 -94 -57 35
43 1 1.4643439756112214e+01 2.3253157841643421e+01 5.5667244268086700e+00 -5 -5 11
460 1 1.5084696611039199e+01 1.5968012005524775e+01 6.1338979491082224e+00 -119 123 37
360 1 1.2389719658087516e+01 1.6900380220016032e+01 8.0122655435349366e-01 -93 -40 73
195 1 2.4600210144483295e+01 1.5004764185319450e+01 1.6022544940079260e+00 -13 -5 77
158 1 3.9354386675109190e+00 1.9732309797882863e+01 2.6694734036312715e+00 -62 63 -84
315 1 1.5120514749574690e+01 1.8317899355270171e+01 2.9346942286328321e+00 -71 95 86
318 1 2.0440606066299694e+01 2.0707105649735368e+01 3.1411570596561758e+00 40 4 153
96 1 1.5615546235216526e+01 1.2890080607109800e+01 3.0996387704421107e+00 239 43 69
114 1 2.3662450250983589e+01 1.2974338246693689e+01 7.1085153477559464e+00 -15 13 -13
505 1 1.0374801456671019e+01 1.5583856527638982e+01 6.3935952434371242e+00 0 28 -42
311 1 1.8679514234166561e+01 2.2805183499674186e+01 2.8760259467718834e+00 9 -56 17
125 1 6.8660412989200781e+00 1.4542884227139853e+01 3.5935105018446061e+00 -43 -47 -14
112 1 2.3795216977418569e+01 1.7445869670928687e+01 6.0463290385424697e+00 17 90 -32
23 1 2.3745832077789949e+01 2.4191507362882092e+01 8.0076950805718605e-01 58 38 13
212 1 2.8351367418400968e+00 1.7662608442554664e+01 5.7490649070292417e+00 -14 -43 -36
239 1 1.5294676360735731e+00 1.3448156326397500e+01 5.4978562521812604e+00 45 -18 8
312 1 2.4482351144296506e+00 1.5224074856523801e+01 7.1313560268306500e+00 -3 12 22
248 1 1.3865548870536054e+01 2.0478548233134717e+01 4.6187467736216696e+00 -41 31 0
419 1 2.2380758782908195e+01 2.2156954126890234e+01 4.8365889347241051e+00 47 6 20
220 1 6.6526985039311306e+00 1.9171740207070222e+01 3.8413306277450778e+00 53 3 5
105 1 2.2573542454280052e+01 1.9702637589509287e+01 1.2771870845896474e+00 0 87 10
102 1 1.3105961360502198e+01 1.6492600795089906e+01 4.1389899199437146e+00 23 -19 19
470 1 2.1282539660507473e+00 1.7545148257045405e+01 3.0705567707141115e+00 23 -29 -132
21 1 6.9079152145830962e+00 1.4426800785412057e+01 6.9635653940407396e+00 13 -7 -117
351 1 4.8720398698641390e+00 1.3532700886552737e+01 1.8491452625622240e+00 27 -29 -63
218 1 8.8030710236795677e+00 1.9404379606202035e+01 5.8961945302175724e+00 -55 -14 -27
230 1 1.1347575798556411e+01 1.8044999563079145e+01 5.5595968915154046e+00 5 -24 -137
280 1 3.1826283158357409e+00 2.3278674986207015e+01 4.1117866570582595e-01 19 -46 156
20 1 4.7338285946217129e-01 2.0933438457762989e+01 4.2733293026207004e+00 126 32 27
103 1 1.7307251495128874e+01 2.1983202833452488e+01 6.0825703938354128e+00 -27 42 -51
165 1 1.1637439005374071e+01 1.4545874391819615e+01 2.5623037429692439e+00 96 -15 93
468 1 2.4455249234735334e+01 2.3798889762935026e+01 4.0028950034033830e+00 63 3 -49
90 1 2.3507129096947175e+01 2.0889197816788581e+01 7.1865607051357321e+00 -48 -42 -76
275 1 2.2520729726154649e+01 1.3762013052847802e+01 3.1035811508743536e+00 29 -17 31
257 1 1.3211504479227337e+01 2.3430260359505809e+01 7.9557656470303764e+00 -28 17 49
137 1 4.9313195692598040e+00 2.3182890502949633e+01 4.5543012172693995e+00 1 -26 57
448 1 1.8488680151016325e+01 1.5750571173901879e+01 3.9249902141099433e+00 3 -42 -15
109 1 1.1869716709578956e+01 1.8848804871337741e+01 2.8183588394824701e+00 -86 -40 -46
429 1 5.4867046413671003e+00 1.2575496855095240e+01 5.0944756660176864e+00 -33 -41 43
506 1 4.9189930209549200e+00 1.6192180242025735e+01 8.1658718984697174e+00 -14 -23 -4
485 1 1.4817599402383536e+01 1.5240429107733558e+01 5.4514674015200959e-01 -10 -5 84
163 1 1.8349414264583899e+01 1.2419212624428440e+01 6.6059324275379607e+00 -34 -65 4
147 1 1.5679881816829489e+01 2.1459026862190655e+01 1.2193202640005900e+01 -25 28 94
508 1 1.5703570364630350e+01 1.7405119825104322e+01 1.0602918024067280e+01 5 18 -58
303 1 1.1429849774897253e+01 1.8616936525894559e+01 1.5920561730331034e+01 22 -8 201
123 1 8.1842062215307045e+00 1.8373602851623708e+01 1.3100392998018485e+01 -71 -8 4
436 1 1.2625703263782770e+01 1.5500575642033624e+01 1.4118202428228857e+01 45 72 17
56 1 1.5240482631784106e+01 1.8881507117413889e+01 1.2920348492664365e+01 -15 79 27
288 1 5.2092179121388407e+00 1.3671725066787539e+01 9.4307657481422957e+00 -69 -25 -76
93 1 5.5154612381965276e+00 1.4063550183335172e+01 1.2369757786787945e+01 -37 -11 16
67 1 2.7614538614406401e+00 1.4709376579402564e+01 1.2136173536156464e+01 -20 -80 -32
22 1 1.8267653918473123e+01 1.7522597054903464e+01 1.2376233457843057e+01 -4 -71 71
104 1 8.9729011102494525e+00 1.4044818131898063e+01 9.2011092643681689e+00 76 23 -17