LAMMPS data file via write_data, version 4 Jan 2019, timestep = 3000000

512 atoms
1 atom types

1.0012464839420865e-01 2.4734875351610363e+01 xlo xhi
1.0012464839420865e-01 2.4734875351610363e+01 ylo yhi
1.0012464839420865e-01 2.4734875351610363e+01 zlo zhi

Masses

1 18.0153

Atoms # atomic

195 1 3.3260157742958540e-01 9.4158862576975952e+00 6.5074172103761310e+00 -22 -14 74
241 1 5.7381797943987518e+00 4.0972635122659602e+00 2.8936982482778646e+00 5 -112 -37
24 1 2.2230280638832096e+00 6.6067051582678982e+00 2.9786238412339228e+00 32 -46 63
375 1 3.0579398220480418e+00 7.3139514012477038e+00 6.7461033131259587e+00 1 51 -112
19 1 5.6713812970240403e+00 1.2106001671493107e+00 2.1868780076968810e+00 17 45 84
221 1 2.0590965482598079e+01 1.1023340619053208e+01 5.5421848464529866e+00 4 0 36
507 1 1.9856113655704732e+01 4.7249888213019400e+00 5.1156194199651734e+00 -59 26 -22
119 1 1.9398225546276301e+01 1.9134496446202720e+00 4.1226366387161475e+00 37 67 96
8 1 3.3154004340144985e+00 1.0023804573349068e+01 5.5595551507131473e+00 -20 30 -20
500 1 8.0584833625384853e+00 4.5431653794789311e+00 4.9745283745824711e+00 82 -78 60
143 1 2.3127297769298202e+01 7.7830684538274431e-01 1.6527456188635850e+00 35 -4 -3
157 1 1.4842608242420713e+01 3.6796519805483570e+00 1.0216948264137686e+00 -4 -28 63
78 1 1.1564074630741727e+01 7.3695583565572254e-01 6.5261189117286511e+00 -7 -53 -33
442 1 1.2115279837426495e+01 2.1427118167847996e+00 3.7862825180060757e+00 27 -14 -99
399 1 8.1561179972172866e+00 5.9376157688138598e+00 7.4419682348504059e+00 22 69 -24
92 1 2.0846809807088846e+01 1.0904765989965007e+01 6.9597815923731154e-01 -42 55 -108
211 1 2.0383761969525374e+01 1.5385620967256246e+00 1.8212762710249948e+00 -37 12 -22
100 1 1.6149323733650142e+01 1.2324165501716188e+01 3.9893674763234293e+00 46 -125 -16
343 1 8.0573503902582324e+00 2.6984725230172004e+00 1.0250608390138984e+00 -69 19 150
193 1 1.6094041359180757e+01 8.6205221681121511e+00 5.9275509910262025e+00 -70 28 -14
79 1 4.0852959942711546e+00 8.2239401546621131e+00 3.3619827321225046e+00 0 -82 96
318 1 8.1742272828285270e+00 1.2179312620096487e+01 2.0922489070990689e+00 32 4 159
387 1 1.2322844890699578e+01 7.6358856825113541e+00 3.1087295913848965e+00 71 -28 131
174 1 1.2119086031229367e+01 2.9942190116433935e+00 1.1025241615980304e+00 21 102 -19
258 1 2.4664523544366169e+01 2.4539830179178228e+00 6.8614734609275967e+00 110 -55 73
421 1 1.2148727920975677e+01 6.4846740679274779e+00 5.9174599633549088e+00 19 -7 75
350 1 1.0701952687487168e+01 1.1020546250198569e+01 4.7740516528006163e+00 19 -5 50
274 1 1.4285301011868947e+01 1.9932301296808586e+00 7.8310054622664360e+00 -44 36 9
312 1 2.4580521891948322e+01 3.5786326527796084e+00 2.2627142160262421e+00 1 7 24
270 1 1.7591902623826527e-01 8.4937159948003451e+00 3.0109422286100971e+00 27 137 101
468 1 1.5562429419730279e+01 7.7144906694711368e+00 3.3852482066748975e+00 66 3 -40
391 1 1.0079914717559973e+01 9.4393478814273912e+00 1.8402275723020747e+00 -88 -29 -17
237 1 9.8269572836308221e+00 5.0155689340908411e+00 1.3454477447825648e+00 16 -27 -18
311 1 1.4632700550738532e+01 1.7200878953084089e+00 4.8053325426867861e+00 15 -59 18
400 1 5.7376890505191600e+00 1.1005777644630259e+01 7.3776459461223762e+00 58 27 -20
252 1 1.7715782483908534e+01 1.1382065350258316e+01 1.5970994193565666e+00 -58 -81 2
141 1 1.6290500092391390e+01 3.7846480273010461e+00 6.2280919153191485e+00 84 85 -6
166 1 3.5037980918566203e+00 1.0367690676521781e+00 5.4208060253695383e+00 43 -9 -27
383 1 9.0266449801844182e+00 2.1084284346203281e+00 4.4920628678753758e+00 -59 88 -18
293 1 4.7837659330841973e+00 4.9800032577046709e+00 6.5106868577753936e+00 12 134 44
451 1 7.9365985223516438e+00 8.8950357010694940e+00 5.6832246734141290e+00 64 34 -22
495 1 1.6520600287676203e+01 5.1993732570247069e+00 3.2031425043072463e+00 -28 14 -54
105 1 2.2259453801534107e+01 1.0761390011213601e+01 3.0640894060178625e+00 3 91 7
390 1 1.3366017775981797e+01 1.2026605464949279e+01 2.0109990575603849e+00 -17 -29 -17
116 1 2.0601285109057713e+01 8.2119141216402287e+00 2.5954163516567963e-01 -45 -6 -4
60 1 2.1243861152322987e+00 1.5455202467860449e+00 2.3136455334137134e+00 -63 -25 67
32 1 2.1461413490858469e+01 5.0924306880019463e+00 2.3042343413026840e+00 -49 114 -43
504 1 4.9034459582663565e+00 1.1068929572330001e+01 2.5074338959459945e+00 -36 -30 48
30 1 2.3574445336603183e+01 7.1756397963878298e+00 5.9815815999883553e+00 -85 -8 -21
430 1 1.0786714572792766e+01 4.8782797113482710e+00 4.1628679230896823e+00 55 48 9
15 1 2.3432638237006023e+00 1.9980801066262623e+00 8.0621612832004264e+00 7 -7 -130
256 1 9.8497340453705657e+00 2.6323171475073157e+00 7.8248469113032595e+00 30 18 -35
362 1 1.6601731703404681e+01 2.1265377407819557e+00 2.9429888210496622e+00 -53 -18 -61
189 1 1.9450190541238726e+01 7.4952807808062447e+00 4.4994891824803069e+00 115 -51 -32
382 1 1.8296957965950334e+01 4.3212158841552988e+00 7.6583813594988337e+00 49 -3 54
16 1 1.4554682260441874e+01 1.1146514650420425e+01 6.1854089894290052e+00 149 94 7
254 1 6.3565717043196326e+00 2.5993853071275668e+00 7.1559430040048078e+00 44 100 35
207 1 1.0104295336769347e+01 1.0739431867045701e+01 7.7912004877157335e+00 37 -35 5
45 1 1.4698566099563637e+01 6.1285696013874720e+00 6.4990291693882636e+00 0 81 -73
428 1 1.3851853338615374e+00 5.0912963190501328e+00 5.0153004469465068e-01 61 -11 -9
202 1 3.7098063481133052e+00 3.5935614679217474e+00 4.2135327650861747e+00 27 90 -20
332 1 2.2124714414391853e+01 7.8953416892144777e+00 3.1682653117007176e+00 15 -26 -96
31 1 1.5590510774579391e-01 1.1943781735881423e+01 2.7224339769953034e+00 -54 -15 121
304 1 2.3198301611898330e+01 4.5584602761356638e+00 4.9595793665435384e+00 -23 -53 123
109 1 2.3360049305009585e+00 1.0474125578881148e+01 1.1620901697800932e+00 -81 -39 -51
310 1 1.4482992232431191e+00 5.3098967862226614e+00 5.3108791763976484e+00 -7 -9 5
76 1 2.1197973599628874e+01 5.3533235851169692e-01 6.1869891287650312e+00 15 21 14
134 1 9.3099822756108246e+00 3.2514218277147888e-01 2.2765056522092597e+00 -73 -11 20
138 1 1.9082354736939244e+01 5.5790785546046813e+00 1.4346020280585701e+00 187 38 25
461 1 1.7300674610011235e+01 1.1996090180911711e+01 7.5030005493751801e+00 10 32 -11
339 1 1.5445481889723327e+00 1.2183144383564832e+01 5.4307171125266915e+00 34 59 5
194 1 5.8351738248031451e+00 8.1462424072855448e+00 7.6855737685009542e+00 46 105 1
187 1 1.0503256722884029e+01 8.0800535539819442e+00 7.2183786653258171e+00 -1 12 -14
84 1 1.7664556968009855e+01 8.6509394964129225e+00 2.1380596934724583e+00 37 47 19
106 1 1.8082006603386354e+01 1.0508641761870646e+01 4.9307421079677605e+00 13 -19 2
160 1 1.3417308468908354e+01 6.2006318050186371e+00 1.0498665253825976e+00 -33 49 46
264 1 4.0156080335616569e+00 8.2141530838698582e+00 1.0016909962787210e-01 -106 31 35
466 1 1.3270117313098957e+01 1.0400645511056545e+01 3.9575077518890005e+00 111 -26 -22
263 1 6.7156519153190555e+00 7.2678176910254511e+00 3.7278936030725442e+00 20 136 4
337 1 2.1692586929709492e+01 4.6614623940066258e+00 7.6826638635893429e+00 13 19 -39
123 1 2.0293585497848149e+01 8.5036161490988427e+00 6.8669145625292751e+00 -69 -1 -3
292 1 4.7026786984781985e+00 4.6455637341191718e+00 2.8574562959345751e-01 -22 21 61
277 1 8.2277853353389734e+00 7.1522943950876057e+00 1.5871545644606402e+00 47 3 101
10 1 2.4195473998369778e+01 8.2474010684267309e+00 1.3996032964338490e-01 -83 59 -19
49 1 7.5933454009810477e+00 1.1464086389194769e+01 4.8941080413310214e+00 -10 34 -23
282 1 1.2508052727356835e+01 1.0420526939573875e+01 9.6763768639140402e+00 38 26 67
509 1 1.8678453289910728e+01 8.0177393436411482e+00 1.0649656590733537e+01 111 51 -75
113 1 1.2169758356710929e+01 7.6180395144956377e+00 1.0052707371335073e+01 -60 27 80
162 1 1.8060646998749576e+01 1.2075922438242351e+01 1.0843931721483047e+01 -44 8 12
347 1 7.1104712550108795e+00 1.1839020003998250e+01 1.5900026853921261e+01 -128 -11 -6
297 1 1.3046289626893474e+01 3.7641818285025304e+00 9.7987116787780231e+00 16 39 -13
482 1 2.3700931289042963e+01 6.5222705102515830e+00 9.0896249185948186e+00 6 74 32
298 1 1.1160336513479209e+01 1.1728862289238098e+01 1.3415884839167813e+01 9 43 7
493 1 7.8838247396543011e+00 8.4505056094365294e+00 1.5117592584703916e+01 -37 99 47
407 1 9.0769896835155417e-01 5.2582403806317997e+00 1.2867817627402601e+01 15 14 69
448 1 1.7592458568251281e+01 2.1626228892478854e+00 1.5281536072444474e+01 13 -37 -15
359 1 1.7435129994178851e+01 5.7455423837096378e+00 9.7061099879303896e+00 -48 36 5
286 1 2.2805870029851505e+01 5.1793609689611166e+00 1.2787095392373899e+01 55 -12 17
3 1 1.5150051201099778e+01 1.0995146754750852e+01 1.0181304099999712e+01 11 52 24
168 1 9.6149680370850703e+00 5.9168749572024772e+00 1.3694418518506772e+01 95 -51 -61
73 1 1.5739882892305888e+01 8.6525146010103278e+00 8.7477851123117301e+00 -65 8 18
458 1 6.8202247869777102e+00 4.3739877863562659e+00 9.4433288921771510e+00 -34 51 2
289 1 2.2681344760704846e+01 1.0787841836397739e+01 8.5468958408648650e+00 -25 8 -54
94 1 4.0954260160300011e+00 1.1247462466486400e+01 1.6340354273791888e+01 -55 25 38
87 1 8.5737863629816924e-01 8.7355278844771478e-01 1.3975560273216841e+01 3 40 83
283 1 2.3217232305642810e+00 4.9736913732400589e+00 8.8473285109780608e+00 86 -35 71
280 1 6.8632307468667371e+00 1.7806935617670483e+00 1.2055896180764600e+01 10 -36 150
34 1 8.8667431676955903e+00 3.1710386121839300e+00 1.5194431214905594e+01 -113 -13 122
63 1 2.0232971875377409e+01 3.0697697838796429e+00 1.2012861587162019e+01 12 -7 -99
48 1 2.7305695353440509e+00 6.0231108656635790e+00 1.0871797861754610e+01 15 -5 30
384 1 1.8602022814982249e+01 1.0141776095849185e+01 8.8020062175390983e+00 -5 1 10
28 1 1.9680074221711150e+00 1.0399143542481116e+01 1.3422210270917121e+01 15 39 24
91 1 4.8872629854848579e+00 4.6578993226145782e+00 1.1623096510876342e+01 -32 3 17
433 1 2.2484333379207079e+01 9.5220795150826252e+00 1.5298218262645957e+01 14 -48 -38
259 1 1.7836853455797431e+01 1.9884659939414131e+00 9.5138003150757715e+00 -3 43 41
447 1 1.8424946280658872e+01 1.0942751464354378e+01 1.3104296027323409e+01 -1 -116 21
275 1 2.1468460747394161e+01 1.1553696799439425e+01 1.2916382512078757e+01 29 -10 31
443 1 3.6186728811018165e+00 8.2982895185582102e+00 1.5732435208547466e+01 -112 19 -25
20 1 1.0878106544536156e+01 4.9015648626115800e+00 8.6942613876547270e+00 125 43 26
5 1 2.0756439473978979e+01 2.4892709278789673e+00 1.5039705881558403e+01 53 37 3
43 1 3.1317610778675151e+00 1.0286585771407058e+01 9.0709991200678708e+00 -9 -10 15
210 1 1.9570176979379049e+01 8.1866341008043566e+00 1.3262404267539251e+01 -10 9 44
460 1 2.4225217178615295e+00 3.0557898875487579e+00 1.4485228154258499e+01 -121 128 35
301 1 2.2205299272974671e+01 5.1125784502786873e+00 1.5689606031612211e+01 114 19 36
188 1 2.0920752166256015e+01 1.2138051924026314e+01 1.0245942455991191e+01 7 -7 71
476 1 1.7781498106616745e+01 9.0499634450923274e+00 1.6372014059594484e+01 -36 -9 -53
46 1 4.1771314657665179e+00 8.1662371645260539e+00 1.0647763265934527e+01 52 -7 55
473 1 7.1710364751703723e+00 7.6502772182456580e+00 1.0221873029954258e+01 -44 -35 74
389 1 9.0074655296317570e+00 4.4431751256056113e+00 1.1075051387383422e+01 4 75 -18
288 1 1.4503822815330720e+01 6.1966786009537866e+00 1.3883770500465630e+01 -72 -28 -78
278 1 2.0905593903606039e+01 5.4035764373313837e+00 1.0342937985100248e+01 -91 -100 42
122 1 5.0627257617182053e+00 3.2718159634784607e+00 1.4123659337978232e+01 7 7 14
124 1 8.8667044776200648e+00 9.7114799324303789e+00 1.0995971948061724e+01 -56 158 -24
173 1 6.6960437527053021e+00 6.5724482613505328e+00 1.2692734898991537e+01 36 50 -7
233 1 2.0586570369097622e+01 1.4390051136343891e+00 9.2384971916110139e+00 -5 -23 -43
427 1 2.1588053414203259e+01 8.3858065113604816e+00 9.7894836558515141e+00 131 -14 22
478 1 1.5172666990045023e+01 9.1309108005732564e-01 1.2653325636439975e+01 29 -6 26
53 1 1.0571559468715140e+01 2.1726350773358569e+00 1.1783105717751738e+01 54 109 140
474 1 9.6130938313650605e-01 7.4069117719983986e+00 1.4392920595160383e+01 -15 -56 -28
511 1 1.5751992829505376e+01 8.8484469937675403e+00 1.2262098014733557e+01 47 4 88
363 1 1.9353906895674498e+00 2.4221535160340415e+00 1.1304217121930352e+01 -24 -44 8
58 1 2.4284523452144697e+01 1.0574796233707366e+01 1.2187196044192270e+01 6 -18 7
279 1 1.3944497699304630e+01 1.0667310066974373e+01 1.3635724146800156e+01 -34 158 50
370 1 8.8703541885967763e+00 8.4385487075444632e-01 1.3569066474277534e+01 -34 114 32
82 1 4.7616974062358279e+00 1.5172412007582208e+00 9.9681383975069533e+00 -2 -2 16
281 1 5.0848597197150562e+00 1.1649938734518907e+01 1.1583316441307513e+01 37 -34 110
341 1 1.2658453525583797e+01 8.3947680598649939e+00 1.4062392503599062e+01 42 -31 73
50 1 2.4138786722928806e+01 7.2802260628521553e+00 1.6390923059200816e+01 5 40 -50
508 1 6.7856559404930490e+00 4.7504772314319217e+00 1.5369754738846002e+01 16 13 -66
477 1 1.2806161140181992e+01 5.2207448930025961e+00 1.6456552883665680e+01 28 -2 38
181 1 1.7893291810735782e+01 6.3299436526169595e-01 1.1885933515238090e+01 78 67 -52
251 1 5.0647292114134421e+00 8.9600580255170765e+00 1.3278520108634114e+01 -43 29 -43
35 1 1.3738442021599514e+01 3.7155264504444783e+00 1.2240923174897917e+01 -53 24 -48
54 1 1.8145367418796212e+01 4.3804309252797085e+00 1.3415258680143641e+01 -4 21 49
401 1 2.3547411616565540e+01 2.5504241857330325e+00 1.1269307413482768e+01 24 14 13
57 1 2.2763201069359106e+01 8.7986425278704072e-01 1.3211088048657729e+01 -24 -6 34
373 1 1.0770348280308250e+01 8.1584766937563700e+00 1.2170819805557722e+01 45 35 -44
4 1 2.4418106031086509e+01 1.1562723968004860e+01 1.5876865242514898e+01 20 -84 10
325 1 8.2370714497358222e+00 9.5735962073333014e-01 9.4131630184200734e+00 -89 39 31
51 1 1.6535023370875216e+01 3.9078314162502621e+00 1.1437815373900960e+01 47 -7 -48
441 1 7.7399142243178130e+00 1.1066137845630246e+01 1.3185777701538086e+01 -8 -65 -13
457 1 1.1861881493131284e+01 3.5676188336006569e+00 1.4492168863052999e+01 -19 -33 69
445 1 2.2451123313620414e+01 8.2217808715831850e+00 1.2565841550426388e+01 116 68 5
64 1 1.8351384375493097e+01 6.6710995002122973e+00 1.5197363056143995e+01 -32 58 24
367 1 2.2746321175469689e+01 2.5060856340448572e+00 8.4227433184562521e+00 -1 1 64
444 1 3.3087499773586226e-01 9.2081366012684089e+00 9.2964360097422549e+00 -2 -31 12
465 1 1.7172230725354531e+01 1.1860955481501238e+01 1.5272801431459960e+01 31 45 26
284 1 1.4883115613546789e+01 9.5034919707746357e-01 1.5333525015917591e+01 -84 -69 -9
345 1 1.2375177428148884e+01 1.4588843010714170e-01 1.1862385993211621e+01 94 143 -16
61 1 1.4574963592208679e+01 6.1609613461413471e+00 9.0994040544375423e+00 97 -66 96
488 1 2.3858661789381109e+01 2.5794730106921966e+00 1.6164036384024165e+01 -29 -16 26
497 1 1.5901641069858693e+01 5.7286631804833918e+00 1.6234687708216470e+01 5 21 29
412 1 5.8536198145923679e+00 1.3343107078046033e+00 1.6391112597746265e+01 -23 24 -62
56 1 1.0296973339476354e+01 6.6949364290600322e+00 1.6215178060783174e+01 -9 75 34
294 1 9.4002933622217455e+00 5.9668447475708697e-01 1.9731141415496054e+01 36 29 -71
502 1 1.8503177985561777e+01 3.3772973224752962e+00 2.0110805275389502e+01 -34 -25 -55
354 1 1.3142261933935032e+01 1.1470818244713481e+00 2.1456300900392641e+01 8 46 17
411 1 1.1275952769531758e+01 4.3867604204882102e+00 2.2557359028929895e+01 34 114 166
398 1 2.3745182667810710e+01 6.1123362657925533e+00 2.1707518711871579e+01 -54 -26 5
409 1 1.5780981332390661e+01 1.0140826711632467e+00 1.9645461984148270e+01 -57 76 78
154 1 8.1224049017792286e+00 2.6664038957530165e+00 2.2971382546898994e+01 97 -24 4
449 1 1.5428050866085179e+01 9.4895311548667785e+00 2.2882161181838335e+01 -56 66 33
206 1 1.8603687857837578e+01 5.9156026792446736e-01 2.0596507945516464e+01 20 -86 23
408 1 4.7465341986467013e+00 4.6478877389189510e-01 2.1745228389914416e+01 -136 39 57
506 1 1.6487058000065817e+00 5.7584255734688927e+00 2.1563914752994123e+01 -17 -24 -5
377 1 2.4320590071294561e+01 1.1471265850823775e+01 2.1751776360301676e+01 9 9 -92
483 1 1.4778668287654582e+00 2.5554706569574352e+00 1.8516118684659624e+01 38 63 12
175 1 1.7138972245689274e+01 1.1841838062396377e+01 1.9650369426368819e+01 42 -4 -18
37 1 1.8456747086781391e+00 1.0136295473039674e+01 2.1463592012509594e+01 46 19 -47
303 1 2.0238793624626055e+01 5.5603108568322677e+00 1.7188529637688752e+01 29 -5 207
132 1 2.2135304373762558e+01 4.6464141519006894e+00 2.0201558027083905e+01 -42 2 -66
177 1 5.2276736471476859e+00 5.1801457920019818e+00 1.7689149362608937e+01 -14 -44 44
484 1 2.1900228352254096e+01 1.6713780965301099e+00 1.9668460612390462e+01 -54 -20 90
321 1 9.7673022137071772e+00 4.4850202436873428e+00 1.8243654663555496e+01 37 28 -76
163 1 6.1144313607640859e+00 1.0316447992234794e+01 2.4623535215818265e+01 -50 -63 10
74 1 2.0144263889291594e+01 2.8179761693935936e+00 1.7733671918462775e+01 7 56 -9
501 1 4.1218304961674734e-01 2.8710615489038043e+00 2.1925917713384074e+01 33 -15 -4
71 1 2.0356429003398219e+01 9.8649464373926818e+00 1.7176700433828088e+01 67 -76 -67
83 1 7.3576014312550564e+00 5.4624581236199017e+00 1.9609258841121552e+01 42 1 11
164 1 2.3746300624417898e+00 1.2339549155502947e+01 2.3947198197044287e+01 43 21 127
11 1 1.1139021486174194e+01 1.5742507797061271e+00 2.3498780125207723e+01 17 70 -35
419 1 1.9424775968008340e+01 8.9393126546898252e+00 1.9627626552550566e+01 47 -5 14
200 1 8.6064643686821700e+00 7.8926827870853273e+00 1.8918840153761387e+01 69 96 -13
214 1 1.1635345052671019e+01 8.6321263397307195e+00 1.7716729798352937e+01 18 96 4
69 1 2.3936551246390366e+01 8.4989689097924312e+00 1.8917134971281115e+01 -23 -7 1
456 1 2.2141461112418135e+01 8.8925342472267292e+00 2.2340509578670883e+01 -30 -35 8
80 1 7.3989495492983979e+00 4.0911875942294046e-01 2.1652258921193898e+01 36 52 6
184 1 1.6965731496320110e+01 4.7578709882810228e+00 2.3989752916012314e+01 -8 6 40
223 1 1.6473001830690947e+01 9.3431823734449324e+00 2.0064878645553506e+01 110 36 -4
142 1 1.4951446716165487e+01 1.4841676010555387e+00 2.3475369188397238e+01 22 11 53
225 1 1.4477382333377902e+01 5.9076009383162793e+00 1.9383269098704758e+01 17 78 16
394 1 2.0252723818518717e+01 4.3670203836332755e+00 2.1783552516504713e+01 -117 0 -38
260 1 1.8913157049251822e+01 2.6785100333748000e+00 2.4061684063642460e+01 -20 -3 50
185 1 4.9124709412532441e+00 1.0033329406939700e+01 2.1540037551820696e+01 8 9 -20
379 1 2.3886684110680143e+01 1.0936593818103290e+01 1.8396303416195934e+01 148 4 61
180 1 1.0701173318369007e+01 7.0614830099882404e+00 2.3220013810406584e+01 1 288 -29
309 1 1.3514721195654191e+01 7.2370105756383376e+00 2.3508264376552248e+01 67 64 -45
7 1 8.5100057606178154e+00 7.3341279071951981e-01 1.7324863745900061e+01 48 14 61
396 1 1.5566521958686241e+01 8.1657325887981536e+00 1.7795696903856417e+01 -3 -1 15
346 1 1.9170132849158904e+01 7.0502328522733935e+00 2.1883054470321504e+01 43 24 -109
68 1 1.1111971145757737e+01 2.7521009296931225e+00 1.9939005145865529e+01 16 -21 18
176 1 6.4439610186826783e+00 9.2843464925920198e+00 1.7538434168224036e+01 -96 -102 -36
139 1 2.7175926878873029e+00 6.0220231518169367e+00 1.9333254623627141e+01 -8 -9 -13
295 1 1.6688854461723977e+01 3.3623968925153789e+00 1.7539353070699988e+01 -44 -9 -19
273 1 1.9963593695657288e+01 1.0680636404629299e+01 2.1365739762859477e+01 76 177 119
201 1 1.8951784178567617e+00 8.0815907234915940e+00 2.3010234217145083e+01 -93 -52 42
296 1 8.4536279977411297e+00 9.5418005452997843e+00 2.4072501280341712e+01 -52 -103 56
111 1 1.7950548617878027e+01 8.9962802581226118e+00 2.3573256610996189e+01 7 40 90
319 1 4.5721724005459157e+00 2.6686183142590330e+00 1.8495302951897152e+01 -34 -2 44
368 1 6.4634455043097718e+00 4.5657442503124832e+00 2.2257962615901555e+01 50 -32 43
369 1 9.4005482781465393e+00 9.2107838594561660e+00 2.1151737679672941e+01 6 62 -1
149 1 2.1594601038520040e+01 7.1589830570093014e+00 1.9226588717357131e+01 -52 68 -12
146 1 1.7430221413134916e+01 8.0713649103459539e-01 2.3002157822368275e+01 -7 -7 5
299 1 2.1628455502539218e+01 3.3198597367664475e+00 2.3900364752190569e+01 47 16 62
75 1 7.1152435483671557e+00 1.0787419966037593e+01 1.9979112478524449e+01 8 39 9
434 1 1.7998910698791427e+01 1.1647101970121467e+01 2.2878949047497777e+01 60 -36 -75
269 1 2.0572586676062712e+00 4.5186657540678974e+00 1.6881979924637072e+01 30 -42 5
261 1 6.5577504662513633e+00 6.7852589374944792e+00 2.3745844025196021e+01 6 35 -110
425 1 1.3573182909109864e+01 9.7283856242546545e+00 1.6691057109071146e+01 68 49 -6
209 1 3.7698922856188783e+00 8.5070216743227540e+00 1.8692247095330131e+01 3 23 -47
41 1 1.6716182188033244e+01 5.4731789849107244e+00 2.1482150307094535e+01 67 -11 30
103 1 1.1824219073981817e+01 7.2420393203096847e+00 2.0095943908027671e+01 -20 39 -39
95 1 1.5141426807895563e+01 1.1384941032062558e+01 2.4450110325118231e+01 56 119 -2
47 1 2.2675631548930006e+00 1.1454454748979085e+01 1.8675368104992394e+01 11 66 -107
199 1 2.2877890098684446e+01 9.3877857078940952e-01 2.3147984794332245e+01 22 66 -30
272 1 9.8917281323621822e+00 1.0736682539190722e+01 1.8040133492573965e+01 -29 10 100
388 1 1.3555867435079008e+01 3.0880165659639207e+00 1.8745618793145574e+01 67 -8 20
306 1 4.4297739592010448e+00 3.5412464035093651e+00 2.1269643629283074e+01 -2 63 -68
366 1 2.5475685865303523e+00 2.9038960162570211e+00 2.3383083588195660e+01 152 -9 -60
191 1 1.4691203850207541e+01 1.2124430544056773e+01 1.8223448323227366e+01 39 -25 -14
505 1 2.3924964238299950e+01 2.2146851998942330e-01 1.8882528946992267e+01 -4 25 -53
140 1 1.1349225751900926e+01 1.1799454450571913e+01 2.2830374547678005e+01 -74 28 -18
352 1 2.3023626567260500e+01 5.8037442389545362e+00 2.4311493132300932e+01 38 -40 -69
236 1 1.2304607286454868e+01 9.9356180552254649e+00 2.4630480577053412e+01 42 77 74
101 1 2.3475756828665276e+01 1.1650312317539695e+01 2.4396824449782152e+01 -22 -30 75
55 1 3.7602319589620867e+00 4.2601262896664516e-01 2.4649134848322191e+01 30 68 -22
314 1 1.2350308320289635e+01 1.4474329492145286e+00 1.6598994330678337e+01 -4 19 -9
178 1 1.1637477441113667e+01 1.8680041112498408e+01 5.7833187136056798e+00 64 40 -54
39 1 6.3642042810818156e+00 2.3249639696417532e+01 3.1713155989523956e+00 2 41 49
305 1 9.8616417206606488e-01 2.0005054860043472e+01 5.0895173557817515e+00 21 89 34
402 1 1.3967701691224409e+01 1.7483376762152965e+01 3.5496898386072386e+00 43 53 -25
238 1 1.8216601045724275e+01 2.0747167688078129e+01 5.7589821620329147e+00 49 26 -14
155 1 1.1711255409227379e+00 2.3922764972604497e+01 3.7785344579236892e+00 -41 35 24
170 1 1.7831086139893500e+01 1.4649396299378813e+01 4.2771631537451622e+00 8 42 -14
378 1 1.8319719962691941e+01 2.3628289771993437e+01 5.2981109569763341e+00 19 -16 -61
217 1 4.6826607426458295e+00 1.3289321566638399e+01 6.1637244598705800e+00 94 -43 85
490 1 3.5573749886762243e+00 2.2830059184076035e+01 4.8019543811975849e+00 20 -93 6
182 1 9.3316756123381488e+00 1.9967821431532990e+01 7.6364301800791401e-01 111 56 43
144 1 1.0595207805382515e+01 1.3144009150492282e+01 8.8284267292489904e-01 -16 36 47
413 1 8.9104277234693861e+00 1.4024231313226101e+01 7.7516155282454688e+00 -23 22 -30
6 1 1.9190190712398348e+01 1.7956414960263210e+01 8.0774917857618291e+00 84 21 -35
324 1 1.3527662770838047e+01 2.0622661434630245e+01 6.2161105635811102e+00 11 -56 73
323 1 5.5780915539641835e+00 2.0928728961561895e+01 5.9338224109910369e+00 16 -107 25
331 1 3.4061646040520999e+00 1.3213273519671349e+01 3.2735407879669318e+00 29 16 -6
285 1 1.0796168922424927e+01 2.1319880844986521e+01 4.1139410971009527e+00 -25 77 -8
22 1 2.0198232122047251e+01 2.2978047920533747e+01 7.8091268955256554e+00 5 -66 67
167 1 3.5612294979837444e+00 2.2118949739547958e+01 1.8182312012429949e+00 13 -25 6
485 1 1.1539258224333143e+01 1.3566993752592461e+01 6.0651369042832517e+00 -11 -2 81
262 1 1.8953891852310349e+01 1.3588517155531767e+01 6.6110940451514129e+00 7 52 -44
380 1 2.3574858623061047e+01 1.6765121584527158e+01 6.6534864277269188e+00 -3 89 57
492 1 2.3645580789112124e+01 2.4334614542544770e+01 6.1549747830058053e+00 7 -19 46
234 1 2.0762307198637060e+01 2.0276883791060371e+01 6.8966435290195944e+00 74 -17 17
291 1 4.7544048812374236e+00 1.4452622130680522e+01 8.3542141642073320e-01 27 106 77
215 1 1.0602207455610371e+01 1.8273977621251348e+01 2.8921166267553460e+00 3 -136 -36
152 1 2.1549261495501327e+01 1.4721422878163231e+01 6.5879781555708483e+00 -62 -151 -2
489 1 5.7286455420841511e+00 1.9216661004453428e+01 1.9935180323218415e+00 72 198 -46
67 1 2.3774604246602280e+01 2.1380328076084751e+01 8.2383170805296546e-01 -14 -83 -43
381 1 1.5527498271617381e+01 2.3720027521102011e+01 5.6511856871078319e+00 26 -123 31
491 1 1.6065636598578163e+01 1.9241760115911759e+01 6.6704709587444846e+00 -39 -30 -22
453 1 2.1036737808719721e+01 2.0198398365643946e+01 2.5662241004381423e+00 58 -10 3
102 1 2.2968264187904424e+01 2.0806940361831877e+01 5.0774376544136626e+00 25 -19 26
110 1 1.5805873505161665e+01 1.5704334375220272e+01 1.1100262852806513e+00 18 -26 -17
190 1 7.3515343175805246e+00 1.6986055038196241e+01 5.7954764391643110e-01 102 87 16
470 1 6.7279460669109739e+00 1.4279806409216842e+01 3.1316913277926766e+00 24 -30 -138
463 1 1.9774209867777309e+01 2.3194125051029935e+01 2.9606325591263380e+00 -46 36 -33
349 1 1.6108215898106266e+01 1.7060222073124656e+01 5.3689309991563974e+00 6 21 54
90 1 1.3078896736090199e+01 1.4548953630651409e+01 2.0906704621430299e+00 -36 -55 -66
510 1 1.7656326625483076e+00 2.2065419724199543e+01 7.0212047178736272e+00 -57 135 24
66 1 9.5182292009073652e+00 1.5646001109144727e+01 2.2432446541137927e+00 -17 30 -31
118 1 6.8542118671213617e+00 2.4710168778496268e+01 5.6800277551723779e+00 -37 138 -84
165 1 1.1650517973113882e+01 1.6085813066286732e+01 7.8072662903138941e+00 88 -16 98
330 1 1.9646134075227884e+01 1.3835025616880381e+01 2.1414879234916158e+00 -17 32 41
327 1 9.0669523788211581e+00 1.8969638132840828e+01 7.2461643539213325e+00 96 0 3
429 1 7.0019747642574215e+00 1.4716260016432342e+01 5.9511759711983130e+00 -29 -32 44
414 1 2.3426089810340322e+01 1.4732318162497689e+01 1.7187177115801848e+00 105 1 63
440 1 1.1790495122625572e+01 1.5659787106413230e+01 4.4610385265916825e+00 -40 -44 119
276 1 1.8321475669108501e+01 1.7699405001805388e+01 3.6428084873192610e+00 38 171 -27
158 1 2.0555421895297165e+01 1.8058246740713876e+01 4.7441277608426073e+00 -65 49 -94
405 1 7.5804504870733131e+00 2.0640118059952343e+01 3.2269214157546435e+00 -26 -3 52
218 1 8.1706846884561539e+00 1.7945562023124616e+01 4.9444332922672745e+00 -49 -18 -29
242 1 2.1843229135379829e+01 1.7188441723168246e+01 1.4005302484685418e+00 5 9 -51
406 1 1.1926186427190842e+01 2.1193401611150847e+01 6.4227089130407178e-01 51 140 -2
40 1 1.2993723411577337e+01 2.2880100457272313e+01 3.7972714784182142e+00 4 32 63
480 1 1.3355471920324621e+01 1.2834146460039209e+01 7.7588991753597973e+00 9 -51 84
248 1 3.3977660739493030e+00 1.7588576887238624e+01 1.4367115443815928e+00 -46 22 -2
464 1 1.5795234519517056e+01 2.1740094444496151e+01 3.0087511130244948e+00 16 22 -23
302 1 1.6480968184580739e+01 2.3988446348574215e+01 1.7811931988981911e+00 41 -71 -36
198 1 5.5918858881679938e+00 1.8081857158930369e+01 5.0964764433837653e+00 -43 48 13
220 1 1.8090969270214750e+01 2.0273249382527247e+01 3.2507662629843206e+00 57 -3 9
393 1 1.8959933602012917e+01 1.6274346961884078e+01 1.3804529678651587e+00 96 49 -90
364 1 2.3119303640392069e+01 2.3254019829874146e+01 2.9110142882266747e+00 99 6 -7
186 1 9.4797723990281852e+00 2.3266179009112079e+01 5.6735823089440132e+00 -20 170 36
203 1 8.0511722359306468e+00 2.1175765113331117e+01 6.7023480834773066e+00 98 -110 82
14 1 2.1751863906898713e+01 1.3635111950447138e+01 3.7831326788239688e+00 57 -24 38
104 1 2.3587980181794002e+01 1.7918704461374325e+01 3.6291415527668103e+00 64 21 -25
1 1 1.4182343315412266e+01 2.0012574436842726e+01 1.4248533225907607e+00 -59 -39 63
417 1 1.0247431013270183e+00 1.9341445007932649e+01 2.0964269155285691e+00 13 2 -27
438 1 3.8282611697458342e+00 1.6039893652284540e+01 4.0355317503507164e+00 23 -31 -55
227 1 1.9736206454091336e+00 1.7241940242096071e+01 5.9179933745748459e+00 129 108 -7
121 1 1.6309487462470245e+00 1.4803533454246198e+01 1.3009261123200890e+00 -10 9 5
117 1 1.7371289168564147e+01 1.5720707404142940e+01 7.9839069365031881e+00 52 48 83
499 1 2.3582114744051729e+01 1.2591529689701371e+01 6.6690422591595340e+00 39 -28 -63
432 1 1.2013338797420928e+01 2.4510894713364664e+01 2.1104694616226145e+00 36 -50 2
423 1 5.6935623544905392e+00 1.6597882199901250e+01 7.5897370477005692e+00 -20 6 49
235 1 8.5598817906737157e+00 2.2728049878180890e+01 4.5428929602634543e-01 23 -58 145
27 1 3.1808704758908615e+00 1.7928350148848381e+01 8.3004890574139090e+00 14 -17 56
232 1 1.4124893596869580e+01 2.4144875983145369e+01 2.2665947749918069e-01 89 35 36
85 1 2.3380267881531346e+01 2.2568152428588505e+01 8.1359033840849282e+00 22 41 -92
196 1 3.7640073453042242e+00 2.0523285868487015e+01 7.6509197249370846e+00 4 23 17
126 1 2.9211666431728112e-01 1.4590363570228142e+01 8.2293803396015441e+00 -25 -36 -33
114 1 1.3657801292953797e+01 1.7468606047353525e+01 3.5238269987797821e-01 -11 19 -14
376 1 2.1560530598518632e+01 2.3656642404232045e+01 1.4983189249911018e+01 -78 2 -8
81 1 1.5438419558011718e+00 2.1644043121580530e+01 1.5545784577066268e+01 45 97 -15
503 1 1.3922019458978184e+01 1.7884730099934501e+01 1.1382615038149543e+01 -16 -7 24
36 1 1.2377019673069221e+01 2.3435682617726968e+01 1.6312358238166851e+01 107 60 118
33 1 1.2776710321750445e+01 1.4220399308602863e+01 1.3459944811971212e+01 -100 -33 -28
17 1 1.0078260176265031e+01 2.3273703657462001e+01 9.8526004018898252e+00 56 19 20
435 1 8.0287614101520717e+00 2.2697613782257108e+01 1.3331187920738813e+01 -50 -18 -11
420 1 1.6757237726200820e+01 1.9903736474668612e+01 9.6980850160494221e+00 25 -21 119
231 1 7.0077074694657497e+00 1.2568952308162565e+01 9.6846319906183354e+00 -40 6 32