LAMMPS data file via write_data, version 4 Jan 2019, timestep = 3000000

512 atoms
1 atom types

9.6301998290581281e-02 2.4738698001711626e+01 xlo xhi
9.6301998290581281e-02 2.4738698001711626e+01 ylo yhi
9.6301998290581281e-02 2.4738698001711626e+01 zlo zhi

Masses

1 18.0153

Atoms # atomic

241 1 5.6260809830612892e+00 1.6092505809428006e+00 4.0525292816606093e+00 0 -108 -23
240 1 5.5191925087322460e+00 9.2002548435343883e+00 2.6424299517376930e+00 -220 125 56
350 1 1.7347962079732280e+01 9.4336284147274156e+00 2.2704481792155642e+00 27 9 45
504 1 2.0455950490867433e+01 6.9828581591595773e-01 6.9657088304761849e+00 -45 -33 34
429 1 1.8793904177224377e+01 9.5130970745600489e+00 5.9408247887297678e+00 -28 -51 37
113 1 7.2771036261366753e+00 7.5530716502641138e+00 1.5806048129196770e+00 -41 36 77
219 1 7.1349019755082148e+00 2.2975642635932116e+00 8.4272762919462962e-01 -31 -13 -116
388 1 5.1028620588857843e-01 7.4476257619092072e+00 1.8328165145119242e+00 61 -5 40
19 1 1.8076317501761338e+01 6.4187899333282301e+00 5.9084178149890541e+00 18 52 69
487 1 3.5224185404419672e+00 4.6783746731139253e+00 1.5085163378522541e+00 20 51 -12
353 1 2.3716145157735262e+01 6.8642213838725006e+00 4.0671566829746171e+00 -165 72 91
276 1 2.8750026115780787e+00 8.3369037415242246e+00 2.4110242597835572e+00 30 162 -28
133 1 2.3969496343195562e+01 9.3032730324751078e+00 5.2871740376981124e+00 -40 66 -55
401 1 1.1073274073547866e+01 6.5349705192658574e+00 3.8885058568782243e+00 43 11 12
479 1 1.3178098846392292e+01 3.5254045266101373e+00 3.6243874516506578e+00 -23 -18 -52
294 1 1.5217593987125337e+01 3.0929785513931360e+00 7.4243873037123329e+00 33 40 -87
121 1 7.9638933069443816e+00 1.3060768373652807e+00 7.2122934600445916e+00 -1 2 7
310 1 2.0210245105401199e+01 9.1356310234981137e+00 3.1869046097577347e+00 -7 -10 15
104 1 5.5151801130899951e+00 1.0978212429436516e+01 2.9231183694352186e-01 82 20 -19
342 1 1.1539701416681609e+01 1.4842078595762243e+00 2.1155703161040136e+00 37 -1 10
8 1 7.5410764124237408e+00 3.6726501227068331e+00 5.0330807718303125e+00 -32 22 -37
172 1 2.3205763576855432e+01 3.3495579123445678e+00 2.7093350465754789e+00 -35 -108 42
94 1 2.8124917602687299e-01 5.6502732242981732e+00 7.6665428001901255e+00 -62 25 61
359 1 8.1672776191713776e+00 6.2823328228795488e+00 3.8845493138287663e+00 -38 54 4
337 1 1.4698027568985895e+01 3.9568840093397761e+00 9.2394318168663780e-01 24 12 -51
374 1 1.5377575625743741e+01 1.1749598652814349e+01 2.6480915375727601e+00 -20 30 -6
465 1 1.0697855209416648e+01 1.2043109221451186e+01 5.2186412593912932e+00 27 39 47
182 1 9.2830837239949968e+00 6.5398296452758133e+00 7.3554937494326476e+00 124 59 44
413 1 2.6285637215498743e+00 1.1445361666025930e+01 7.1444323563310885e-01 -31 6 -14
439 1 2.1235723995707740e+01 6.3084149321005922e+00 2.8428358672352663e+00 23 -49 -63
210 1 1.3575520991342085e+01 5.3073130165799816e+00 7.1965210503625761e+00 -14 -8 40
291 1 3.5457265198482473e+00 6.2238347032603620e+00 4.3870192063387412e+00 28 108 68
193 1 1.8685293167306774e+01 3.1253676511672634e+00 4.5687655910469740e+00 -64 17 -22
312 1 1.7761497331759347e+01 7.3463922777559432e-01 3.7602794512761171e+00 -13 18 11
114 1 2.0449737434185145e+01 9.5748355575754491e+00 8.2212706299296290e+00 -14 10 -10
211 1 9.0476700121767450e+00 9.2679971016647595e+00 6.4378007441701337e+00 -33 14 -20
155 1 8.5768277717776957e+00 3.7902090128290905e-01 3.1045835467809701e+00 -46 42 31
412 1 2.3982529934732948e+01 1.6399337218665315e+00 5.9357813202853080e+00 -29 22 -67
417 1 2.2882621398701765e+01 1.0223800580698102e+01 7.3956405539922416e+00 14 10 -21
245 1 8.9719784177481632e+00 1.2349517163547453e+01 9.1312250341650369e-01 -24 3 89
181 1 4.7509234562636821e-01 4.3673423465879289e+00 4.6165807457060630e+00 78 60 -67
400 1 8.3694789576133211e+00 4.5052403588016228e+00 1.3787561002848796e+00 66 24 -25
37 1 2.4585618050426179e+00 2.4135230172345499e+00 6.4014423489776195e+00 48 29 -40
112 1 1.4502281110323159e+01 1.6141140578702251e+00 5.3750408700665462e+00 8 83 -36
167 1 1.1324818335535019e+01 8.9231149294613790e+00 4.4872076968577499e+00 22 -14 3
281 1 1.3166932877202971e+01 1.1627262259114149e+01 1.0449960031986842e+00 32 -32 98
348 1 2.2346376807443622e+01 6.4062152054075154e+00 2.5624985745140649e-01 -12 -18 12
503 1 2.2075750036931492e+01 1.0578859067955300e+01 3.5566993788146228e+00 -17 11 28
468 1 1.4877142879291581e+01 6.0912058615080444e-01 2.3630614950096445e+00 59 15 -42
150 1 1.0802523979592177e+01 1.0674641482948941e+01 2.3928874874042187e+00 73 -33 75
249 1 1.2779680536080580e+01 6.6016464285918861e+00 1.6943170453647542e+00 -64 -33 -25
187 1 1.1328933602692319e+00 2.3860216741193985e+00 2.1581690733001344e+00 -12 18 -16
116 1 4.4810437650676507e+00 1.9911813853569869e+00 3.5578467688850102e-01 -49 9 2
471 1 1.1171951085574678e+01 5.0261505626141858e+00 6.1762655160610089e+00 -92 -22 26
99 1 1.0965466849967411e+01 4.4784333131334124e+00 7.2254003620047758e-01 -5 -16 34
233 1 1.8376691377917860e+00 1.0390262118852709e+01 4.1390500296747890e+00 -12 -29 -45
65 1 2.1237108129782690e+01 4.1534919805502195e+00 6.0419801873611476e+00 -27 68 -20
246 1 2.0893247226700149e+00 7.7599906503074232e+00 6.0955213848719305e+00 77 57 96
264 1 2.0276216098848316e+01 1.1496869577915882e+01 8.2441773929618345e-01 -93 30 38
151 1 2.0486283748925093e+01 1.0163832593714046e+00 1.3145156861145262e+00 -38 -47 -19
268 1 2.1648463506956865e+01 1.7175603843458902e+00 4.1240083174249742e+00 -132 8 -12
5 1 1.5927606494364074e+01 9.9315208691314769e+00 4.9917770068568448e+00 46 44 8
175 1 7.2892533786659124e+00 5.0908340723242445e+00 7.7750477338243282e+00 50 2 -14
123 1 6.8845216300456054e+00 1.0177377010598860e+01 4.7413167396340450e+00 -67 -1 4
261 1 5.8155787231385281e+00 1.1209726440029838e+01 7.1326493463040013e+00 13 28 -107
355 1 1.5834639092144245e+01 6.8404616070442747e+00 7.2793536078647989e+00 -25 -10 68
301 1 1.0053189796656843e+01 2.6809650986360372e+00 5.0416599051248259e+00 121 23 32
84 1 3.3455724590116072e+00 1.0021424099913542e+01 7.6518216047076546e+00 46 60 41
46 1 5.9787912191685573e+00 7.3285082748524450e+00 5.2930415884501114e+00 36 -6 62
139 1 1.4372730831015637e+01 5.9697564774097165e+00 4.1953667516477697e+00 -1 2 -12
153 1 1.3845655113908848e+01 8.4994775513009468e+00 5.8556854658767961e+00 -3 -18 90
26 1 1.5618912992130035e+01 7.4226981217945989e+00 8.4790241567236790e-01 -13 21 69
445 1 1.7053759637173094e+01 6.2449689322304636e+00 3.5073117485148244e+00 115 79 16
283 1 2.0914841021979878e+01 6.3838223540929429e+00 6.8806141709805484e+00 74 -31 83
497 1 1.9212572742140644e+01 4.5155404555301173e+00 2.2478638304806848e+00 -3 14 18
443 1 1.7436063997248812e+01 8.1636184586734539e-01 1.0352109328086510e+00 -105 26 -3
1 1 3.5896023589262902e+00 3.4912447468714078e+00 4.3572875182077464e+00 -49 -40 58
103 1 1.0582217521876071e+01 1.3459396935064747e+00 8.1254390768759155e+00 -27 31 -45
79 1 1.5503883248101213e+01 1.2339980752975920e+01 6.2737157723497736e+00 -3 -76 101
458 1 1.3619588906563107e+00 2.7611792069773455e-01 3.9113279043394904e+00 -26 39 -15
138 1 1.2056179852501042e+01 6.2058388825232436e-01 5.8243003960858122e+00 182 34 17
274 1 2.4343240231358013e+01 1.0607163414024761e+01 1.9601209308392487e+00 -58 35 13
356 1 1.7593909365440954e+01 3.9071061680790358e+00 7.6013881944230617e+00 -62 -8 -1
67 1 4.0387458241973491e+00 7.2337816514523179e-01 7.9051646110882938e+00 -19 -73 -27
160 1 1.9251662157199394e+01 1.2302553261714232e+01 5.5157729833040232e+00 -16 45 39
135 1 2.0028043150463649e+01 1.2344954795514148e+01 8.1421648958203825e+00 -1 48 -60
117 1 2.3007823594528549e+01 3.4824369692989192e+00 8.0765357997367513e+00 51 48 79
45 1 6.1287095733634942e+00 8.0869577247614330e+00 8.0036680103635440e+00 -7 82 -63
228 1 1.1822035576555838e+00 5.4081071268309380e+00 3.4075663684234481e-01 -39 26 12
259 1 3.1036704931229075e+00 1.2413419426943822e+01 5.8629894201033901e+00 -6 55 34
110 1 1.3392836736387347e+01 9.5429789869389730e+00 8.2423578234874153e+00 21 -26 -26
179 1 1.7314393833179039e+01 3.3999069193541640e+00 2.4923067288534639e-01 -74 -65 -32
96 1 2.4327042506264657e+01 9.3645921410914568e+00 1.0192235494057115e+01 234 37 83
41 1 4.9237116460943655e+00 8.6899089536142871e-01 1.4451920298715024e+01 66 -6 29
303 1 1.5542702009244582e+01 8.1141942219341807e+00 9.4767753477319676e+00 26 -15 207
351 1 1.2206701284656587e+01 8.7597720886953176e+00 1.6396418416024350e+01 26 -26 -73
330 1 1.2274725869310300e+01 9.3714242741715137e-01 1.4700535298752518e+01 -20 16 38
180 1 2.6227573691009822e+00 4.1195408373855509e+00 1.4076791476777148e+01 9 285 -20
147 1 2.7887664407612789e+00 6.6433114970282725e+00 1.6494476351541206e+01 -34 33 95
470 1 1.2747306386144015e+01 5.8116223665759685e+00 9.8360576705125560e+00 26 -40 -145
352 1 1.7842310771340834e+01 7.7821048867803420e+00 1.5593520637088206e+01 29 -35 -55
201 1 1.6378972438947088e+01 1.0861487812960704e+01 1.0610113657862115e+01 -103 -40 37
77 1 7.9538065104677935e+00 3.6264737337965132e+00 1.0190296941631074e+01 53 -22 8
90 1 2.2761823713272850e+01 7.2005559943295765e+00 8.5254192658612045e+00 -52 -47 -73
88 1 2.4390399271797378e+01 8.1408369816605166e+00 1.3773785327215586e+01 -18 20 54
273 1 1.0734058171191704e+01 5.0843123290463339e+00 1.5571908459066515e+01 84 188 128
171 1 5.0404561601059665e+00 1.0302253002546571e+01 1.4662638342101356e+01 -36 39 3
438 1 2.2716061776531404e+01 2.5624227067422423e-01 9.2489728155714612e+00 23 -26 -58
473 1 1.8267344976883528e+01 1.0838937191208510e+01 1.4773903604935459e+01 -44 -22 59
358 1 4.5122851774175832e+00 6.0658806740292981e+00 9.5303517773367616e+00 -32 81 44
188 1 2.4412070281629710e+01 1.4724034988869572e+00 1.0842802728645363e+01 4 -10 57
242 1 1.0510748881711505e+01 9.4903144984168009e+00 9.2919672679919181e+00 7 11 -48
7 1 2.1516303601872238e+01 7.8625227826265798e+00 1.3877045499571860e+01 61 9 47
428 1 1.1565713280561654e+01 1.1369568693694159e+01 1.1284283690698503e+01 54 -12 -3
239 1 1.7468423115924768e+01 3.5175515375000717e+00 1.4461588200756877e+01 37 -24 13
173 1 1.4368460248337563e+01 7.2220087206773202e+00 1.2198397255449162e+01 44 47 -15
398 1 7.3071875295622757e+00 5.8013086196122501e+00 1.1504466583532070e+01 -47 -32 20
33 1 1.5996063231970775e+01 1.0161912727317088e+01 1.3335605758297973e+01 -92 -46 -14
145 1 7.8741879936258030e+00 1.1043225580885311e+01 8.7325532786725404e+00 24 -5 -51
279 1 2.1984761111201372e+01 9.8322125191720389e+00 1.1792225322447134e+01 -35 173 50
331 1 2.4714484741517243e+01 1.2192466724012387e+01 8.7019569435308153e+00 38 21 -11
32 1 1.1577678660687505e+01 2.3577061160620785e+00 1.2390076509719608e+01 -55 109 -34
386 1 2.3150611617498340e+00 1.0772216187707219e+01 1.0544943892631446e+01 84 -54 6
2 1 2.2723918643311136e+00 6.7992308426360486e+00 1.3364531844916709e+01 -36 18 -6
304 1 7.1607370341218282e+00 8.3824041140440944e+00 1.0840048986512873e+01 -30 -47 119
159 1 4.0946258228822066e+00 1.7967310243405257e+00 1.1617856427183202e+01 -46 58 107
297 1 1.8059594718357015e+01 1.1513991727621335e+00 1.3191292663494266e+01 4 23 -19
89 1 1.9534668192411381e+01 1.8719416279708512e+00 1.0874127771288054e+01 -3 4 -193
59 1 1.8193658394591811e+01 7.2314692317944171e+00 1.0378875695514408e+01 44 -90 42
48 1 1.3868313610825839e-01 5.5769924431039835e+00 1.1821434242175807e+01 4 -9 31
446 1 1.3635333448101756e+01 1.7103647982178916e+00 9.3899161959498993e+00 33 41 -15
75 1 8.9245861689248080e+00 7.2704930048048211e-01 1.2600218435288088e+01 8 33 -4
50 1 9.7923629597290205e+00 4.2787106122031160e+00 1.3338146131885441e+01 7 22 -45
206 1 6.6677667093152113e+00 4.3518343040936092e+00 1.5971925150120711e+01 16 -84 32
334 1 1.1383190403610723e+00 1.0754578724789182e+01 1.4308531992454107e+01 46 72 13
238 1 9.1594037228772205e+00 8.9030467425850741e+00 1.3543801960666288e+01 53 -1 -13
482 1 2.3927947983802738e+01 5.9836732851286225e+00 1.5638354920161442e+01 10 56 36
163 1 1.7192770231461487e+00 3.1972517414492665e+00 1.0972323750059701e+01 -43 -56 -1
484 1 1.0014132630328074e+01 7.1373048540650821e+00 1.0291888173193106e+01 -47 -27 90
344 1 1.8280739998281991e+01 1.5237980767397139e+00 8.6822743156589812e+00 29 -39 12
16 1 2.3150140789868900e+01 1.2276295058663068e+01 1.1457606192838274e+01 148 94 4
22 1 1.0955210467494821e+01 6.8440959346407402e+00 1.2771641441874719e+01 -8 -80 81
92 1 1.4300976061663745e+01 3.2146231404889694e+00 1.1867340667973762e+01 -51 61 -109
236 1 1.2908050012095549e+01 9.2323278366193033e+00 1.3437114633469072e+01 43 89 78
87 1 6.4567825426032410e+00 1.3856684492119058e+00 9.9112063552625216e+00 -10 40 73
60 1 9.6950119931422329e-02 3.5648246844001039e+00 1.5091141775134936e+01 -64 -19 67
78 1 1.7243869652107907e+01 4.0674468345121220e+00 1.1414652384558181e+01 -11 -65 -19
253 1 1.9401519453347035e+01 5.3342042599506998e+00 8.8874681240981133e+00 0 24 -5
434 1 7.1377350697829440e+00 2.6098379688218696e+00 1.3887912271044181e+01 48 -39 -83
421 1 1.9343407794516153e+01 9.6077056880083731e+00 1.0681490648729431e+01 26 2 66
485 1 4.6519398386838544e+00 4.7399374778590806e+00 1.2223314566100504e+01 -28 -8 92
408 1 1.4882661425488669e+01 4.5650334462906921e+00 1.4430237291109258e+01 -159 33 54
100 1 3.0388922422197560e+00 1.6395773807310068e+00 1.6427672225582693e+01 56 -121 -24
450 1 1.0176047553520213e+01 1.0950848834489548e+01 1.6309842378219713e+01 126 -80 29
199 1 2.3161632222913116e+01 3.0694769464747114e+00 1.2917825101551131e+01 16 78 -38
272 1 5.4479512921639275e+00 1.1027840825077567e+01 1.0992309509895152e+01 -26 8 119
194 1 2.5522066663964140e+00 4.0788323873914489e+00 8.5962012873484621e+00 55 101 5
42 1 1.6940565735811916e+01 6.9688564441038787e+00 1.3107786256716336e+01 -2 85 -66
391 1 2.1343601122008891e+01 3.9494281311914046e+00 1.0503783938381988e+01 -84 -42 -6
323 1 2.0300059840871519e+01 4.5656177082275526e+00 1.3650266366197322e+01 27 -95 20
326 1 1.9905633420638129e+01 1.1973724389505600e+01 1.2990457092247226e+01 36 121 -8
4 1 8.8771007846955410e+00 1.0938122571305236e+01 1.1857532892714334e+01 15 -69 5
411 1 6.9152704538949488e+00 6.5849487150307748e+00 1.4043824832033991e+01 27 111 152
500 1 5.0073964785719030e+00 8.3424940108889594e+00 1.2928857283479681e+01 72 -72 55
53 1 2.0248167713154228e+01 9.1352677892235779e+00 1.5785990322622222e+01 65 97 145
263 1 2.2314763123154098e+01 6.4840427689861828e+00 1.1220302865103084e+01 16 135 24
318 1 2.2643372696096655e+00 7.7419779168576524e+00 9.3343217552867781e+00 38 -2 151
425 1 2.1433928801899626e+01 1.1988363400303838e+01 1.5963521623379904e+01 59 35 -4
200 1 1.5737437884375170e+01 5.4531005478943595e-01 1.2059634553102144e+01 71 82 -19
95 1 9.0319622455664614e+00 7.6377759501257003e+00 1.6297650729347382e+01 63 128 3
464 1 1.0662268258315112e+01 3.4576644445134264e+00 9.8649706563881718e+00 20 23 -25
269 1 1.3640001009521376e+01 2.8124057903570820e+00 1.6380448474009832e+01 23 -43 -1
170 1 2.2218538282982582e+01 7.0954506611776835e-01 1.4768987471432920e+01 5 43 -23
28 1 2.1323772713797776e+01 4.9455615921807627e+00 1.6055352234457505e+01 28 36 25
335 1 1.3978814954822500e+01 1.2153674706571888e+01 1.3775698563519658e+01 9 -18 90
27 1 7.3041315006499739e+00 1.1992940553966967e+01 1.6052207916509786e+01 20 -24 52
313 1 4.0766693702931223e-01 3.1261218764512211e-01 1.4440751685692209e+01 -51 38 31
13 1 1.8488720660516943e+01 2.3003463457245690e-01 1.5857230704920536e+01 128 -14 71
164 1 4.2015077882323526e+00 4.4788586566195594e+00 1.6444383881282530e+01 54 18 141
64 1 1.3545260604181259e+01 1.2393390285139278e+01 8.4158355262825122e+00 -50 54 27
255 1 1.3929532973888898e+01 1.0827162000506837e+01 1.6439963811125192e+01 -126 2 86
197 1 1.6267545554930035e+01 1.1276313440233068e+01 1.8489357300969782e+01 1 33 48
430 1 1.4195929074710564e+01 7.0218440580107275e+00 1.6629456313864985e+01 53 53 4
174 1 1.2445547730332530e+01 9.1176561715917597e+00 2.4658573297113787e+01 13 95 -31
455 1 2.3873775423513070e+01 3.1295518217051144e+00 2.1762572588773484e+01 49 88 31
282 1 1.7537360208593640e+01 5.8404138684080626e+00 1.8346255120926816e+01 35 28 73
165 1 6.9582889596432222e+00 1.1303994612876044e+01 1.8910023270944741e+01 91 -11 95
327 1 1.8069971224545807e+01 2.9358359907840383e+00 1.7210880908294424e+01 100 -1 3
362 1 1.0162488403355276e+01 6.2193062891731268e+00 2.0250144383986679e+01 -58 -1 -57
243 1 1.6160697071472374e+01 1.1407053543367750e+01 2.3633415557516198e+01 22 -38 -16
38 1 8.1209989428616058e+00 3.3314917254524756e-01 1.8349495349164531e+01 -14 51 -23
141 1 1.9337343322252654e+00 1.8402733573132507e-01 2.4690242696470058e+01 94 77 -10
21 1 1.0755960460231828e+01 8.8202232328879298e+00 1.9390808933331666e+01 8 5 -115
18 1 6.3601768992599848e+00 7.9668390250569496e+00 2.0687651412229094e+01 56 57 38
31 1 8.0608883143141483e+00 9.1148728731136526e+00 1.8657335510570174e+01 -50 -19 116
511 1 3.3170585863332773e+00 5.8528754622658790e+00 2.0032214018627631e+01 47 3 109
483 1 1.6752473561118119e+01 5.0561379019454344e+00 2.0748927198526712e+01 51 55 7
295 1 2.3981470082992107e+01 8.6243135301210905e-01 2.3851077365446528e+01 -48 -16 0
216 1 4.7081259121985664e+00 3.9939414769158486e+00 1.9010761808847157e+01 -39 -3 161
296 1 4.1450762978424214e+00 1.1828483871097886e+01 2.1326366530815907e+01 -53 -109 67
66 1 5.6429907514170718e-01 5.6883051538752394e+00 2.1775825332097462e+01 -20 41 -22
311 1 7.2217561846594014e-01 9.0369440850339249e+00 1.6669075166548524e+01 17 -58 21
376 1 9.0972232919098825e+00 9.2546606755290366e+00 2.4500162453929139e+01 -79 -9 -6
247 1 3.4021512418719286e+00 1.0127401560863566e+01 1.7085624233898063e+01 18 -28 8
305 1 2.9778228691971509e+00 3.4316465945346608e-01 2.1773444891539789e+01 26 101 30
325 1 2.1454790731927833e+01 8.1368670009373307e+00 1.8362607148638908e+01 -91 37 44
383 1 1.3445658018249640e+01 1.0698477323655688e+01 2.0578970071169053e+01 -53 86 -27
292 1 1.6190443298320673e+01 8.6523300983299993e+00 1.8038315597139157e+01 -22 22 58
299 1 2.3857198234526134e+01 1.1119333469157386e+01 2.0258166944073597e+01 53 7 48
51 1 8.6364589543203980e+00 2.0996290722923958e+00 2.0749546302099514e+01 36 -17 -62
360 1 1.5722008735262639e+01 1.7267678674696942e+00 1.7793126104346189e+01 -94 -35 70
309 1 2.3905473293453689e+01 9.3126489759669029e-01 1.9925325942405884e+01 67 70 -49
436 1 2.1999326226968066e+00 9.1858208007303972e+00 2.3116878948788674e+01 41 63 14
414 1 1.0789794833738290e+01 3.4150703702517098e+00 2.0162561827141388e+01 99 1 61
178 1 6.9448786506481328e+00 5.8475299883364178e+00 2.2203935011578306e+01 66 21 -52
169 1 1.9774829692252119e+01 2.2257338805185829e+00 1.9259518128179604e+01 -11 27 3
124 1 4.6355129274671310e+00 8.1088587006642623e+00 1.8702108197582898e+01 -44 163 -32
214 1 3.1851722447985007e+00 6.4934911077969462e+00 2.2799791836512028e+01 15 101 1
205 1 1.5733532796308070e+01 2.0547058689179138e+00 2.0692203588723647e+01 -45 -18 -57
431 1 2.3131535463377247e+01 9.1281268320105529e+00 2.4250885641902947e+01 -66 -37 -36
346 1 2.1059308906408155e+01 4.3370457937984073e+00 2.0998842884693111e+01 36 26 -121
131 1 1.8572857463297378e+01 3.0260512073256369e+00 2.2118873037349104e+01 21 -37 -22
422 1 8.5001449754163492e+00 7.5715535416530810e-01 2.3232990868731385e+01 -6 71 68
85 1 1.2182492763612823e+01 6.9963080242962192e+00 2.2565734634223496e+01 16 45 -108
63 1 6.6884892635254434e-01 2.6890585152287536e+00 1.8244067937169600e+01 9 -8 -95
212 1 2.0932279214965860e+01 1.0235796984917432e+01 2.0297005644594506e+01 -21 -48 -35
30 1 1.4649187812660740e+01 8.3583416093420198e+00 2.0664496816767659e+01 -82 -6 -11
161 1 1.3221713024389214e+01 4.2178735885857090e+00 2.3394824083040891e+01 33 -33 48
102 1 1.8659839247703022e+01 1.2047907623539800e-01 2.2093115075699380e+01 27 -25 17
12 1 5.5568850320073535e+00 1.8771711510058771e+00 2.2128367816775860e+01 44 -29 52
385 1 2.3639589587849130e+01 1.1182997635609219e+01 1.7515944310616849e+01 60 16 59
106 1 5.2354063235747859e+00 6.2991488344761759e+00 2.4549442784351498e+01 11 -16 4
152 1 1.9736244601692061e+01 8.6883981778451425e+00 2.2256630241187079e+01 -53 -156 -3
184 1 1.1487030639290707e+00 5.5004510045956794e+00 1.8449052215265528e+01 7 19 32
68 1 2.1262396293736874e+01 1.0904643239097735e+01 2.3295532254187133e+01 6 -20 14
218 1 9.3413476231627186e+00 6.4733718166922074e+00 2.3471170644914427e+01 -52 -28 -14
495 1 1.2955443328625922e+01 9.0301591957593974e-01 2.4337424856281171e+01 -27 7 -58
270 1 2.4051677039946654e+01 7.9620898457750142e+00 1.8789036440602437e+01 14 130 108
463 1 2.4092707213677432e+01 7.9808430373705148e+00 2.1757016489671464e+01 -43 38 -34
396 1 1.0516611099116918e+01 2.2366947226255252e+00 1.7677256235134372e+01 -5 3 11
478 1 1.3253116921131628e+01 2.0781718121185815e+00 2.1568031469314075e+01 35 3 47
198 1 2.0460052945608467e+01 3.0361713604328635e+00 2.4151122827210013e+01 -41 60 12
321 1 1.2956603747170048e+01 4.8343996413901120e+00 1.8032974879530006e+01 45 26 -90
220 1 1.8321323890432243e+01 1.1936062555646453e+01 2.0435847343289765e+01 56 8 -3
57 1 2.2772311888709929e+01 4.0178196977956553e+00 2.4382488887979541e+01 -29 -4 34
6 1 2.0370871462716202e+01 5.8025079444290011e+00 1.8382855061869964e+01 82 23 -35
230 1 1.2778004619383108e+01 5.3353400584408472e-01 1.9051943933537430e+01 0 -39 -127
93 1 2.1383949309439906e+01 6.6394147726207580e+00 2.1983972128868530e+01 -36 -23 24
336 1 6.4755023671096472e+00 9.9622723474774890e+00 2.2615556802831819e+01 38 -13 -127
378 1 1.3988240699374343e+01 5.6312787885588254e+00 2.0379429070396775e+01 8 -23 -68
284 1 8.5529320523299983e+00 5.1090187910143907e+00 1.7765448657906660e+01 -82 -58 0
501 1 7.0988763644927015e+00 4.4066566246615659e+00 1.9961487095587433e+01 33 -12 -24
442 1 1.7251526195144613e+01 7.1919925506451134e+00 2.2173176119348994e+01 14 -1 -109
3 1 2.0795565321583651e+00 1.0052725393765433e+01 2.0276048793780426e+01 16 60 26
154 1 3.7110494901000943e+00 1.4887205014737275e+00 1.9186678569648073e+01 99 -18 4
162 1 1.0959785547291121e+01 1.0182727005532389e+01 2.1773003730307064e+01 -36 -6 -4
488 1 2.2548706579012951e+01 2.4907518638615698e+00 1.6823446907451860e+01 -22 -14 25
271 1 4.6181662428829124e+00 1.2311557627683564e+01 1.8539068784034885e+01 47 41 -46
70 1 1.5062536234000030e+01 8.8947942585415536e+00 2.3357286874646459e+01 100 -7 14
143 1 7.5677649357084151e+00 1.2238647495657062e+01 2.1490866432512018e+01 43 2 -10
76 1 6.3880685284749692e+00 1.3493035188039721e+01 1.7329856923023559e+00 25 25 15
347 1 1.2202928588214244e+01 1.9376072275128703e+01 8.4693896837387450e-01 -135 -10 -4
91 1 6.9808123384692333e+00 2.3768385067541402e+01 1.2211804339449730e+00 -20 12 18
109 1 2.4084360106615890e+01 1.3848377167643417e+01 3.3850998689418044e-01 -85 -32 -45
248 1 1.1685490960240097e+01 2.0871688570059089e+01 7.2315417468314367e+00 -32 39 6
258 1 1.7399376380081787e+01 1.5025692773555329e+01 8.0671078032108645e-01 130 -44 62
14 1 6.0456737730185637e+00 2.1388037730889558e+01 1.9766673779730113e+00 41 -24 36
288 1 1.4264917945349215e+01 1.6085874753316354e+01 3.2418040009238540e+00 -60 -26 -78
402 1 3.2080334691254557e+00 2.0821638357976394e+01 1.0283823928216453e+00 41 63 -27
232 1 1.8934045598995805e+01 1.7119141295224598e+01 1.5806665126910655e+00 92 35 25
319 1 1.6390112151111492e+01 1.4603445467544605e+01 3.0269884827333393e+00 -34 6 41
320 1 6.7148200255938661e+00 1.9325679862438800e+01 5.2044621653732985e+00 29 89 43
254 1 1.0142131509700882e+01 1.8938261243920007e+01 3.0331761571997689e+00 46 94 46
499 1 1.0351915994811478e+00 2.1044653231293399e+01 3.3995262203492396e+00 30 -33 -80
97 1 1.9153694644624906e+01 1.9064700972227392e+01 8.1762786843164701e+00 24 57 -9
315 1 2.9350004518867956e-01 1.4133084407132440e+01 2.8103219454923125e+00 -62 93 91
477 1 4.0259565879416330e+00 2.4464211543152171e+01 2.4479799594631597e+00 40 -8 28
461 1 1.2983639498463402e+01 1.5718254728334243e+01 6.0794812016431088e+00 10 33 -13
44 1 9.5713756518728434e+00 1.5481703628292443e+01 6.4349587299963638e+00 -24 -30 101
202 1 7.7372051674403099e+00 1.8543894344623116e+01 7.9410697942224848e+00 15 94 -28
74 1 1.8891279026003776e+00 1.8446803743391833e+01 2.5382401096639029e-01 4 61 -13
225 1 3.4976798180728679e+00 1.6468866563384658e+01 6.1446923431021387e+00 19 80 12
280 1 2.7239005708693340e+00 1.3126220424052677e+01 3.0507000216856812e+00 8 -54 160
423 1 1.3430705430966505e+00 1.6781736578156853e+01 3.0609002369879716e+00 -13 4 69
105 1 2.2439009492469541e+01 2.1753770778107597e+01 5.2194543841264718e+00 7 87 10
122 1 1.9261382478357735e+01 2.1999661816204448e+01 1.7998410068375046e+00 -7 15 20
257 1 1.4368387968507927e+01 2.2480879686479433e+01 4.5149458798039426e+00 -18 1 52
354 1 2.1298141585012537e+01 1.3212835146169231e+01 4.0994668421758043e+00 5 51 15
140 1 4.0408726626403428e+00 1.5691318380757277e+01 4.3691056730531352e-01 -66 35 -1
419 1 3.9419363725338026e+00 1.5528616564930088e+01 3.1930698572727985e+00 50 -2 19
394 1 2.4216806308921029e+01 2.3123939278396431e+01 3.3567224276108347e+00 -103 -5 -11
223 1 2.4476369700670354e+01 1.7027418783181151e+01 5.5239657563495062e+00 98 32 11
367 1 1.1603608918705330e+01 2.2781934368215719e+01 4.7050139644068416e+00 -2 -3 55
496 1 2.3560436056359297e+01 2.3498238619680905e+01 7.0878029891433405e+00 -11 -11 34
224 1 2.0073809289643528e+01 2.2207688721616059e+01 6.6327451424602444e+00 58 -95 7
207 1 1.8688079980962274e-01 1.9783030188889363e+01 5.7217315999431104e+00 30 -32 19
183 1 5.2628582552984788e+00 1.4488265600426095e+01 7.1972809293377642e+00 31 89 22
244 1 2.2921295438364115e+01 2.2128553349990202e+01 1.2466730009209472e+00 -29 64 2
278 1 1.7486684101684070e+01 2.1177679856309375e+01 6.9598394408167596e+00 -89 -94 61
72 1 7.0380093335271203e+00 1.9353945528828113e+01 2.9075100331541276e-01 20 61 47
460 1 4.6472304142826397e+00 2.0715688589390062e+01 6.3461286034947735e+00 -117 125 33
491 1 7.9681186645385278e+00 1.6881137465182409e+01 1.8596909749635100e+00 -20 -26 -38
466 1 6.3640373834194772e+00 1.6450576523743830e+01 4.3734628321746802e+00 109 -33 -27
15 1 1.7619861753803470e+01 1.7291983386137968e+01 4.1620101297276051e+00 1 -25 -131
34 1 1.2419855137015826e+01 1.4492241635171395e+01 1.5156347784439292e+00 -117 -18 122
10 1 1.3200901145744851e+01 2.1890538657046559e+01 9.6594917072124198e-01 -87 59 -24
132 1 2.2323366382143637e+00 2.3490745913592360e+01 6.4243192393645865e+00 -38 -4 -78
35 1 1.8613767775633892e+01 2.0125268572158163e+01 3.9020007311540792e+00 -49 27 -52
462 1 2.4139866735625134e+01 1.9036616790037005e+01 2.3231365642226209e+00 -55 10 39
492 1 8.3492760269950974e+00 2.2988209062516411e+01 5.1583573725660674e+00 -9 -24 45
36 1 1.4678625968614702e+00 1.4356008311449266e+01 7.0780923500404933e+00 112 55 122
134 1 8.3913477104906757e+00 2.1823743301932264e+01 7.7717919566095501e+00 -72 -5 25
226 1 2.0041258144268824e+01 1.5946475200757824e+01 4.7840506759772730e+00 2 0 -10
507 1 9.6001978580047300e+00 1.4720632756553499e+01 2.0090473565170561e+00 -57 24 -11
125 1 1.0903856459730081e+01 1.3424083493347842e+01 8.2603082546235100e+00 -50 -48 -8
314 1 2.1700229981808739e+01 1.7283873107934419e+01 2.3393025252207007e+00 -21 22 0
448 1 6.2340885921626086e+00 1.3203875019140064e+01 4.4089515168048967e+00 19 -36 -13
435 1 1.3221295527674961e+01 1.3310474997948493e+01 4.6074437347337094e+00 -54 -4 -13
177 1 2.1669275291625564e+01 1.8221824086115944e+01 6.6419646163054944e+00 -34 -43 57
332 1 3.7512714191248042e+00 2.2098011220195872e+01 4.1013860762376861e+00 14 -33 -102
397 1 1.7337764852485282e+01 1.4088580506105764e+01 5.7359099038445169e+00 -49 57 -36
108 1 1.6098961482609820e+01 1.8995131404327832e+01 1.7952620246697084e+00 33 -44 42
370 1 2.0921206366876277e+01 2.0016213556254748e+01 1.2333587542674880e+00 -35 105 35
47 1 1.5393409412062082e+01 1.7582344798763501e+01 6.2093403869760735e+00 18 57 -88
364 1 2.1531598488267395e+01 1.4251332710700350e+01 1.4209305661457381e+00 118 25 -1
24 1 1.6059780778625061e+01 2.4148089521980268e+01 5.4413737593584148e+00 34 -59 70
290 1 8.6009816765891323e+00 2.1005357817206296e+01 3.3617968746194808e+00 -15 -90 -90
166 1 1.3580458456443378e+00 2.2380266366374460e+01 1.9948743537449293e-01 38 -5 -28
39 1 1.1057350017340340e+01 1.7801589248946751e+01 5.4416438458831839e+00 4 40 32
56 1 2.5605794335962315e+00 1.8681979332416681e+01 7.4780203700743897e+00 1 71 42
409 1 7.1496563799800255e+00 1.6052842377190693e+01 7.8808388810362100e+00 -58 84 62
316 1 1.6219323637465838e+01 2.2306889648377407e+01 1.9526171493458606e+00 32 109 75
17 1 8.9170232344540103e+00 1.3904827745398471e+01 4.4773617982175358e+00 49 19 18
481 1 1.5215399314746316e+01 2.0231993355197567e+01 6.0903087616438398e+00 33 -29 -7
377 1 2.1266883396678573e+01 1.9399656766654168e+01 4.3345314788134646e+00 20 17 -107
357 1 2.1779237378748970e+01 1.5093964523561757e+01 7.3982414577362805e+00 15 -11 -2
266 1 1.6351088567734564e+01 1.5712774951350797e+01 7.5940211150747778e+00 27 -74 15
441 1 5.6553532011887828e+00 2.4120403699802928e+01 5.7298844904839621e+00 11 -67 -22
43 1 1.9670797654260891e+01 2.3911291933361255e+01 3.9531247076764195e+00 -6 -7 18
406 1 1.0678486944554111e+01 2.3480570003234924e+01 2.1844562554883917e+00 52 149 19
345 1 2.3509785830437295e+01 1.4255841428552527e+01 5.4646433764170563e+00 80 144 -22
209 1 9.2657156030538914e+00 2.1175797397939260e+01 1.0088685380721743e-01 4 6 -42
9 1 1.7364529358329552e+01 2.4107133066632915e+01 7.9884602417205883e+00 -46 38 14
81 1 4.2962707961210167e-01 2.1664222341109657e+01 8.1951193597741483e+00 43 99 -13
372 1 1.0611236400590624e+01 1.8534068961153775e+01 8.1005123727141832e+00 19 1 25
252 1 1.7015157460940435e+00 1.9856568827258652e+01 1.2088042336164333e+01 -51 -91 2
440 1 1.1125447561343275e+01 1.4207958921550389e+01 1.1345471524427492e+01 -23 -25 123
424 1 2.5095318679075698e+00 2.1456644282548002e+01 1.4136296889415815e+01 49 0 -24
365 1 1.2136254652257660e+01 2.1216866659422571e+01 1.0910727161569451e+01 -21 72 -33
267 1 1.8326304249122643e+01 1.3200778311088825e+01 1.1030972078456124e+01 -100 67 -60