LAMMPS data file via write_data, version 4 Jan 2019, timestep = 5000000

512 atoms
1 atom types

7.9310535179999420e-04 2.4834206894588338e+01 xlo xhi
7.9310535179999420e-04 2.4834206894588338e+01 ylo yhi
7.9310535179999420e-04 2.4834206894588338e+01 zlo zhi

Masses

1 18.0153

Atoms # atomic

65 1 3.6754251414877022e+00 9.1435652520547517e-01 8.9919442475315456e+00 -114 60 23
381 1 2.8040105677749843e+00 2.6829756465211747e+00 5.0644830001416166e+00 33 -130 51
336 1 4.3166190560649627e+00 1.2346703175720672e+01 1.0680448000457083e+01 32 13 -27
287 1 2.9355093077261691e+00 1.7750593795067385e-01 1.1767656820722927e+01 -2 -26 -11
134 1 1.1908979151729222e+01 8.1043569971933351e+00 7.1909319478366216e+00 -140 -19 -11
12 1 2.3631192678976403e+00 7.1602019306754334e+00 9.6382927450359421e+00 41 -33 120
503 1 1.2059258788788968e+01 6.6284079836533119e+00 3.7956744944933978e+00 12 -21 39
202 1 2.9614088068006414e+00 5.7152057587348706e+00 2.3651740153040706e+00 12 68 12
20 1 2.9405764943297963e+00 6.8091473121907695e+00 6.5399986112940729e+00 93 12 -16
404 1 5.3141549922479516e+00 5.7126763885992657e+00 8.0486454600447725e+00 -14 164 70
136 1 1.1038745857128587e+01 5.7646155308706293e+00 8.3134347990817350e+00 22 -65 118
474 1 5.9735416376995367e+00 8.4383840686111657e+00 7.1722837451026056e+00 -14 -43 -17
5 1 9.8128992740546188e+00 1.8372082457650361e+00 4.0944527732252514e+00 118 65 18
486 1 1.1230638915392378e+01 1.0507358963231834e+01 1.0616172148931540e+01 1 4 -35
472 1 2.7917330681462929e+00 9.9117156769636008e+00 1.0062082947319357e+01 28 53 6
160 1 9.5034255300037032e+00 1.0105023432778637e+01 5.9098356014665132e-01 2 91 -12
285 1 1.1203999678714096e+01 6.8447302219705994e+00 1.0988390291393756e+01 1 72 -66
298 1 1.0089658687649923e+01 7.4971152716846925e+00 1.9945750389880164e+00 -29 57 32
455 1 6.4682451508303203e+00 1.5070814837140030e+00 8.8356306154989532e+00 77 108 53
377 1 9.0706387610335835e+00 6.4020632025313997e+00 5.6526416859537267e+00 74 -23 -98
470 1 7.3403903332513121e+00 7.4309202155273848e+00 4.1274614436972117e+00 -19 -6 -62
241 1 1.0311859370359137e+01 1.0752936987597343e+01 6.5799403552983584e+00 1 -138 -34
291 1 5.5698947244111601e+00 3.1375872340390143e+00 4.6952927820473338e+00 27 149 66
332 1 1.8096683004536007e+00 1.0128858839864854e+01 4.0127963690943096e+00 42 -43 -54
197 1 6.6567385757010411e-01 1.0816237748329787e+01 1.0947542963763276e+01 49 30 67
130 1 7.7708309241638167e+00 3.1069826882646918e+00 1.1026240304510916e+01 -73 -33 89
158 1 1.3281843765856678e+00 8.6613741896128253e+00 1.8542070816820533e+00 -37 43 -85
259 1 7.3778731133256450e+00 4.4040830116890595e+00 6.5687283089420703e+00 12 65 11
263 1 1.8620463881548828e+00 6.6520035628415175e-01 3.1218624168439457e+00 -3 136 -39
96 1 6.7156207361410800e+00 4.5441209100943691e+00 2.1311841554803022e+00 232 19 65
185 1 6.7446676015983895e+00 8.0413975552862862e+00 1.3114674279261982e+00 -19 15 16
87 1 3.4489217514635251e+00 3.7209368569774872e+00 5.6644766015764836e-01 16 51 40
181 1 1.1562197180237721e+01 1.1347561503225158e+01 3.2545215989564964e+00 64 46 -79
385 1 7.6441566392936178e+00 9.9399465940693901e+00 4.9989950561232117e+00 38 76 52
427 1 9.0264119306570958e+00 1.1078868389561475e+01 8.8889405322862931e+00 128 -12 -2
15 1 4.8873000885673870e+00 6.2578801375204467e+00 4.3841605805081567e+00 -53 -11 -145
403 1 7.2389971775320596e+00 1.7653539865635748e+00 1.8775303222324713e+00 -43 20 15
265 1 6.0620654725133525e+00 9.8604298866553979e+00 9.7700060286625128e+00 -98 -88 67
141 1 4.4417529141315244e+00 1.1114793675587074e+00 1.2563884145101776e+00 116 34 -41
192 1 6.3181492578993206e+00 5.5959670194714750e+00 1.0997473853633114e+01 -97 65 -31
69 1 4.2048380711071047e+00 1.1245200697462812e+01 3.0515049110167118e+00 -7 -19 -67
435 1 1.1176346322683896e+01 4.0536402446222359e+00 8.0664570576426964e-01 -66 -50 -11
434 1 5.5362288767386074e+00 1.0875205218420808e+01 6.8361560302889368e-01 113 -26 -95
64 1 1.6496451680599633e+00 4.5569967983840280e+00 6.9787205666587662e+00 -45 40 39
274 1 5.4249079022340245e+00 1.1935495747358347e+01 5.7615412890918689e+00 -57 12 -16
97 1 1.0784514151446734e+01 1.6996446273278358e+00 9.2555284108624107e+00 48 96 49
277 1 1.0753496481460175e+01 1.0311549549747796e+00 1.2269450233421333e+00 65 79 144
73 1 3.3928681194151338e+00 3.7261231796374203e+00 9.1301453245165227e+00 -59 18 8
502 1 2.7490924080485741e+00 1.0937003009183256e+01 7.3807745957542581e+00 -4 -56 5
328 1 7.2211761069945286e+00 1.1037372248334787e+00 6.0015560930834182e+00 51 24 29
111 1 1.0812011707521428e+01 2.9897635463882275e+00 6.7166377211743109e+00 -52 -3 106
400 1 8.7078516455855084e+00 8.1752120983861012e+00 7.9277851349839841e+00 74 21 12
391 1 7.9571654395568494e+00 7.5489675565418022e+00 1.0483282895319261e+01 -88 -27 -54
142 1 9.3130268007360826e+00 4.3815165663363862e+00 3.4650844563513683e+00 54 -35 47
278 1 1.4070043561886383e+00 8.7375472845868920e+00 6.3416779123745117e+00 -167 -90 49
256 1 3.2035825180642147e-01 2.7957896296066580e+00 8.7609752725773049e+00 29 5 -56
399 1 5.3015073390513012e-01 4.4022353397576008e+00 1.6120858006976777e+00 -58 10 -24
370 1 3.9083481274375433e+00 7.7005681856234443e+00 2.4833692502865853e-01 24 90 22
219 1 3.9693372873675963e+00 4.2996381806856752e+00 1.2164290333780579e+01 -86 -10 -18
48 1 2.7786823440523349e+00 6.4662807661872170e+00 1.2318743645377555e+01 -29 69 -7
314 1 1.0100574923170246e+01 6.9961758102061333e-01 1.1637293241789749e+01 34 30 -49
316 1 6.5534874708865909e-01 1.0430716308970744e-01 9.6863360926677213e+00 99 61 105
436 1 1.0991283855892535e+01 3.7528260525131252e+00 1.2099750714868250e+01 94 129 44
140 1 1.0338674994618382e+01 3.0887218593463679e+00 2.2441731288334605e+01 -9 28 -14
11 1 9.2423027061368135e+00 7.6308902541897048e+00 2.0941933809994271e+01 18 48 -75
507 1 9.0835215459911467e+00 4.4873578979695777e-01 1.4863945509183985e+01 -61 69 -38
118 1 9.3464101637893169e+00 1.0899030996772813e+01 1.7141371724179798e+01 -71 177 -67
335 1 1.0586607631424829e+00 1.0534731961547944e+01 2.4428840397182711e+01 -23 43 46
504 1 3.2796272120680059e+00 9.1438408764394801e+00 2.3034968550345067e+01 -71 -11 21
214 1 5.8778860435203555e+00 1.0127964438273708e+01 2.2782014764587675e+01 99 80 18
170 1 2.2872048705758203e+00 9.2089350501466094e-01 2.3823384798884167e+01 -15 47 -4
511 1 7.3190898117279399e+00 1.0863469702134000e-01 1.7435037104513977e+01 18 17 68
460 1 1.9000162439238735e+00 2.2698994116805555e+00 2.1337294386240742e+01 -123 150 -11
329 1 9.5154459072703226e+00 4.5275248736432685e+00 1.4902941819988214e+01 -33 -145 -64
80 1 1.0691592992260940e+01 1.0066860269289821e+01 2.0947445081156253e+01 114 -25 34
146 1 7.6556090597747470e+00 2.3463364749587234e+00 1.3590602780860035e+01 -33 -33 31
24 1 5.1073622314630676e+00 1.2294382737429363e+00 1.3994357247613845e+01 7 -62 79
398 1 4.2201405860708672e+00 3.5159026226539156e+00 1.6582783133858126e+01 -101 -80 5
439 1 5.7128760880872935e+00 9.5234961023968108e+00 1.7262844776652628e+01 21 -91 -140
319 1 3.9214383572023519e+00 8.2671424818730621e+00 1.3545598392885193e+01 28 -12 76
23 1 3.4550984329693621e+00 3.8847472170473778e+00 1.9209474259632724e+01 81 32 98
213 1 1.0999178561313541e+00 9.5321053872133419e+00 1.7640797918815892e+01 -14 -2 -11
415 1 1.0405640450191989e+01 9.1734951883994231e+00 1.3025121090460550e+01 -99 -13 43
373 1 7.8388032572416186e+00 8.3631684363854077e+00 2.3204590055351844e+01 80 6 -70
379 1 1.0698855285504569e+01 6.8924485304792000e+00 1.8444625464934226e+01 154 14 46
92 1 9.8859401085581595e+00 1.1452474087261063e+01 2.3172780182244281e+01 -86 17 -100
44 1 1.1591091125795387e+00 3.2538954916462943e+00 1.5543746549373244e+01 -9 14 54
79 1 9.6774789909871242e+00 4.5959673613980279e+00 1.7642064179375726e+01 -138 -26 131
448 1 6.8003393216496590e+00 8.9423180573006409e+00 1.2749571475113367e+01 33 -38 -49
168 1 6.2349091630004034e+00 2.4074854918295725e+00 1.9275792780109683e+01 67 -145 -135
139 1 2.1715793584502557e-01 9.7095142228361198e+00 1.3575238424730838e+01 -10 31 -16
322 1 7.6134874952597018e+00 2.8955422560961450e+00 2.3499306022758628e+01 20 141 39
296 1 1.1173203109018290e+01 5.9134810590834395e+00 2.2072834027775937e+01 -36 -84 120
271 1 1.1894000252728482e+01 6.7007536034448449e+00 2.4827020072872461e+01 63 38 -84
476 1 4.5651288763265194e+00 6.0144343787985710e-01 1.6654386580702976e+01 26 -85 -31
464 1 1.1288580610387204e+01 1.1842182435094759e+00 1.6450700949479572e+01 43 10 15
43 1 5.1210520028376845e+00 1.2396880746548637e+01 1.9632812878923406e+01 -58 -61 -9
99 1 6.2876734791277018e+00 5.0084924696384236e+00 1.4604035674456135e+01 50 34 60
494 1 1.0014865692443611e+00 7.0479859357293497e+00 2.0494401521658478e+01 -49 159 -64
268 1 1.3420617888366222e+00 5.0875437520495543e+00 1.8027637514824569e+01 -153 35 -5
113 1 8.5801677255852677e+00 1.1905607465104316e+01 2.0028919377656390e+01 -19 23 123
236 1 2.8916991472993372e+00 1.1004292635761891e+01 1.4236027645447423e+01 67 148 79
312 1 5.2697266880410867e+00 7.0014899505971719e+00 1.9273003270016801e+01 -2 72 46
115 1 3.3880275295616769e+00 1.0903526639581774e+01 1.6828775437663161e+01 46 -150 2
331 1 4.8412135994399241e+00 2.6346691123176131e+00 2.2007549226568422e+01 72 5 -60
421 1 6.9468438375217172e+00 1.1843059520752568e+01 1.5939125064389842e+01 -21 -13 33
339 1 1.0284026927386188e+01 1.0051924503933334e+00 1.9392504190378634e+01 60 34 -17
206 1 6.5770328449952817e+00 9.5099199463129764e+00 2.0201338346147239e+01 -13 -159 36
388 1 3.4196243971022344e+00 7.0130763202072366e+00 2.1474607806261989e+01 91 5 -14
276 1 5.4253487374944076e-01 9.7780401701543553e+00 1.9923861000575307e+01 37 216 -42
273 1 4.6654593497657304e+00 5.3868167506542193e+00 2.3269118809251069e+01 4 143 72
443 1 1.1383914221693658e+01 8.3948187588694054e+00 1.5904955600257084e+01 -168 11 -3
35 1 7.7859453656974260e+00 9.9597841714072777e-01 2.1008297517617713e+01 -4 13 -93
3 1 7.3137053494033548e+00 5.0007299295923007e+00 1.9152060444819057e+01 28 58 -39
212 1 8.2932288527862159e+00 8.2383130273951153e+00 1.7204604666144821e+01 21 -40 -81
477 1 4.7038111119436996e+00 7.0279665256521371e+00 1.6109483860969309e+01 -71 -15 41
407 1 7.0584432949398606e+00 5.7505985824733150e+00 2.4434776449795638e+01 -13 12 87
175 1 2.4101303729797459e+00 1.1836169848582572e+00 1.8694763984194374e+01 11 34 -47
211 1 1.1094847844577155e+01 3.2970063932508649e+00 1.9553968577047417e+01 -51 45 1
75 1 1.7418189304602965e+00 6.9007268110804327e+00 1.6265480392458763e+01 -70 36 -14
303 1 9.0067745449973540e+00 1.1107648318874306e+01 1.3776301702802382e+01 51 -75 178
451 1 8.0375625648582218e+00 7.2319797445677159e+00 1.4687734860576295e+01 127 32 6
479 1 4.9187153464043271e-01 6.7201901536219495e+00 1.3610272203920015e+01 8 -54 -43
6 1 5.6841854956736153e+00 1.1643381349513399e+01 1.3484469192378581e+01 105 25 -12
362 1 2.2616107956713707e+00 2.7139834878540428e+00 1.3040853326930668e+01 -34 -73 -120
193 1 2.0645071212249477e+00 2.1451142621148534e+01 1.1711811768375833e+01 -139 -4 5
482 1 1.1090896848754159e+00 2.3763985017175102e+01 7.2311448967058691e+00 7 38 36
39 1 3.5494844705078119e+00 2.2854605263015529e+01 2.2456144771606312e+00 25 77 19
102 1 8.0043722384284148e+00 2.1866554497165605e+01 9.3137801842621781e-01 57 -23 49
405 1 3.9441696063324381e+00 1.9970119292578616e+01 3.2270890765769935e+00 -3 -4 74
369 1 1.6055081649757108e+00 2.1393629196284152e+01 7.0286500497205828e-01 -60 94 26
248 1 1.0381739372011348e+01 2.1205337325988665e+01 1.0226669679424981e+01 -33 49 16
326 1 1.2416283980226112e+01 2.4777142054777844e+01 5.1845171254236817e+00 14 126 37
272 1 7.0926210846827233e+00 1.4991010375159734e+01 7.1460574362668474e+00 -21 -95 81
59 1 3.6992028929942169e+00 1.4479441303053143e+01 2.8673061641650919e+00 26 -102 167
154 1 1.3484046463202062e+00 1.2847002974434355e+01 1.9100735270277414e+00 109 -13 -22
237 1 1.0752166064379704e+01 1.5068710764970779e+01 1.1582532701429005e+00 1 20 -32
282 1 2.3202951989649518e+00 1.6784331005468335e+01 1.0970567789856718e+01 113 -3 56
284 1 1.0174505005918014e+01 1.8895897304910722e+01 9.1974023788948056e+00 -119 -97 -14
495 1 7.6683886153880421e+00 1.4220394824937467e+01 1.1389649421025997e+01 -39 -23 -24
311 1 2.0891947808149061e+00 1.7108264403420012e+01 5.9915744081419149e+00 30 -77 40
74 1 4.7866784521661723e+00 2.2982449971497786e+01 1.1366608022646671e+01 41 57 16
466 1 2.7037582030118146e-01 2.3347339287025395e+01 4.2031115724915038e+00 134 -26 -41
483 1 3.5953658916476297e+00 1.9438066374950758e+01 9.5650461477216648e+00 18 38 3
98 1 4.3150180934343254e+00 1.8416424840476523e+01 7.0184971451293992e+00 99 60 -32
153 1 1.1809282551924728e+01 1.3874081574894920e+01 1.0026804035773607e+01 -38 8 59
363 1 1.1680322287621919e+01 2.3625093049326988e+01 2.8906621194072071e+00 1 -54 32
81 1 2.6882869727482990e+00 1.7157338212081267e+01 3.0098182498035815e+00 75 54 -39
61 1 6.9126232244235473e+00 2.3435152071043813e+01 9.3858413270783121e+00 52 10 85
444 1 9.1750950104923170e+00 2.2638907686659451e+01 3.6303181344670707e+00 -18 -54 21
257 1 5.5882608370755884e+00 2.0525835001315873e+01 5.6402346665975305e+00 -52 26 56
371 1 6.9899231172179119e+00 2.4445198338981974e+01 4.0230388285761221e+00 -32 89 -56
365 1 1.0101746653217548e+01 1.3268801058857619e+01 1.2138664739844739e+01 43 60 -38
428 1 9.6730086008018485e+00 2.1177221673727903e+01 6.3631084361493393e+00 28 -76 -7
33 1 1.1602594271171462e+01 1.6541637389119014e+01 1.0968654829363652e+01 -110 -38 -13
18 1 2.7523815099868814e+00 1.4933535893598734e+01 7.1560778798199491e+00 100 57 50
372 1 4.5752795813137119e+00 1.4629596322651111e+01 5.3547031087434389e+00 16 -8 -9
133 1 1.0312600098168854e+01 1.4818866498426392e+01 7.9533295950410805e+00 -73 116 -38
53 1 7.4933210912844022e+00 1.9987440588244322e+01 8.0029440433940646e+00 53 75 152
432 1 6.0639126190972705e+00 2.0521899875461639e+01 1.0323428534902716e+01 36 -65 44
454 1 7.1515413615500671e+00 1.2996767745893417e+01 9.2526706352370134e+00 -123 48 -1
512 1 1.1874208443005131e+01 1.7797589547290087e+01 6.6601544863441182e+00 49 -66 -2
85 1 1.0881623460855540e+01 1.7521662134785004e+01 4.0005280939053947e+00 10 100 -75
288 1 6.1106362653608430e+00 1.9806033645516692e+01 1.3290761144636223e+00 -82 -96 -62
318 1 6.3219711931860951e+00 1.5334199301842810e+01 1.4149008088159776e+00 11 9 194
320 1 7.9961732323686405e+00 1.9817215029646061e+01 3.9134787887637974e+00 60 4 -26
238 1 3.8232307303730956e-01 1.8625339596782887e+01 7.6954363469149509e+00 115 37 -45
353 1 1.0981809360919398e+01 1.3392858766385407e+01 6.0449459080351149e+00 -149 74 114
308 1 7.7136692172617209e+00 1.7428524116555529e+01 1.5496002722982751e+00 59 50 134
26 1 5.0061736881386176e+00 2.2954534711821399e+01 5.0161053653087002e+00 -77 62 62
279 1 7.8969171813527668e+00 2.3095256563400905e+01 7.0161105656499325e+00 -68 137 62
487 1 1.7827732297388865e+00 2.1166906171655658e+01 8.4771575407973376e+00 -5 61 -2
36 1 8.6369376749837148e+00 1.7582254917901988e+01 6.5240447010751383e+00 12 111 138
49 1 3.7012915031225573e+00 1.4765503314877684e+01 9.9068514145734312e+00 -24 28 -7
438 1 1.1358190527878540e+01 2.0223301210787568e+01 3.0795072905504237e+00 72 25 -68
224 1 3.4401177491914696e+00 2.4752204076405782e+01 6.3673980816917082e+00 127 -154 10
68 1 8.7114972135610600e+00 2.3249407025725638e+01 1.1475396207332421e+01 -22 -37 0
338 1 8.6445097266246407e+00 1.5907057676886305e+01 3.8227336929792428e+00 15 47 52
360 1 5.8656377629265046e+00 1.6338546229457304e+01 8.8135768169514073e+00 -75 -95 115
217 1 8.2586313497649666e+00 1.7018471162474924e+01 1.0424339759970980e+01 54 -51 105
295 1 8.3890068646270528e+00 1.3490269539223089e+01 4.6844874337724018e+00 -65 65 -50
413 1 9.3948658521856832e+00 1.2772175662309905e+01 2.0596502000898878e+00 -79 28 -12
392 1 9.9012098016761640e-01 2.0572075640837369e+01 3.3829568072233624e+00 60 -5 -46
40 1 3.1356019737164870e-01 1.2719927932152251e+01 6.9539276134394497e+00 -16 22 26
121 1 7.0227411301060725e+00 1.2932310151174734e+01 5.3999478216863428e-01 -7 40 60
480 1 1.0240681655572724e+01 2.4644927611791900e+01 6.8997333462821837e+00 41 -43 59
481 1 1.1972673887789874e+01 2.2880378520637411e+01 8.5498035237630177e+00 95 -12 17
410 1 6.4291410922450609e-02 1.6797911457741790e+01 9.6966202166587010e+00 62 107 23
356 1 2.2838346032675001e+00 1.5782399321330416e+01 2.9010405859190413e-01 17 6 36
210 1 3.9837766975571474e+00 2.1043455875708887e+01 2.3953888106576223e+01 -42 3 61
72 1 8.3387184724850236e+00 1.6663725805012195e+01 1.4109901949415571e+01 31 60 32
162 1 1.0550082947963231e+01 1.5211307802457853e+01 1.3743936669637872e+01 -18 -38 -6
179 1 9.4201663905289568e+00 2.1339003486384598e+01 1.9829759754410954e+01 -77 -100 -42
267 1 4.8684031136574424e+00 1.5100926692831706e+01 1.2785217462282139e+01 -188 91 -33
344 1 1.2005501941119141e+00 1.5389176060780747e+01 1.5629802010684442e+01 62 -32 103
351 1 4.4516754547366890e+00 1.5375435871975293e+01 2.1895508085882529e+01 -22 -22 5
499 1 3.5548170605968092e+00 2.3759130973277795e+01 2.0086596042795183e+01 71 3 -104
50 1 1.1174341568593449e+00 1.6658238008062867e+01 2.2729370195398623e+01 -32 36 -103
190 1 8.3079574115020502e+00 1.8568206033035313e+01 1.6192821497746859e+01 130 85 2
275 1 3.3863866121897495e+00 2.0900125444121755e+01 1.7352172168124159e+01 72 -14 61
42 1 1.0357235693090290e+01 1.7109203622902530e+01 1.8910009471076641e+01 -35 119 -36
497 1 6.4401681624526921e+00 1.4828558356948649e+01 1.5304914349886017e+01 17 32 24
71 1 3.3085706930548611e+00 2.0287858169330573e+01 1.4003383059567899e+01 89 -84 -117
122 1 3.1632490983309132e+00 2.3023903542630979e+01 1.5859268696901045e+01 -13 1 12
280 1 7.4715478304172533e+00 1.5325762310557897e+01 2.1287238755121191e+01 40 -62 132
77 1 5.7121574291010928e+00 1.8836243317815864e+01 1.9345834598918799e+01 88 16 64
171 1 1.1390423551032516e+01 1.4520499001692492e+01 1.8376909278732668e+01 -60 -10 6
510 1 1.0434392624026134e+00 1.7303673754776405e+01 1.8030059338022166e+01 -24 208 62
449 1 1.3831781606104729e+00 2.0082168154556733e+01 2.1958588843149045e+01 -134 70 99
173 1 3.4632436321792133e+00 1.5839583962152773e+01 1.8447072982841245e+01 -5 70 1
471 1 6.1617429468748490e+00 2.0104479577601012e+01 1.6032420804844460e+01 -78 -34 2
309 1 8.9590732659267047e+00 2.0306738748793176e+01 1.3178011432096973e+01 50 76 -86
402 1 5.1765880523951733e+00 2.1515300893568337e+01 1.9334024086259269e+01 62 99 -38
177 1 4.0763206188666290e-01 1.2736683756793203e+01 1.9863705685426826e+01 -38 -73 63
469 1 4.6781541925059980e+00 1.6905488675862330e+01 2.4155187272918106e+01 35 38 57
135 1 1.2396667254120310e+01 2.4738179793881290e+01 1.3386121450989142e+01 30 56 -102
116 1 2.7370574726339991e+00 1.3210416792134792e+01 1.8166834190268091e+01 -83 -12 54
467 1 8.1814343262885849e+00 2.2655637690933794e+01 1.4693272463410318e+01 -16 117 88
187 1 7.4063029227013750e+00 2.2111181364217966e+01 1.8113298039246882e+01 28 54 -59
408 1 1.0614823652919782e+01 1.9801151525671042e+01 1.7689779161486012e+01 -142 -4 1
201 1 4.5752358800040843e-01 2.3311182211918492e+01 2.3934969558453339e+01 -109 -48 -16
103 1 7.7860666911497933e+00 1.9079780297470272e+01 2.1262819831322059e+01 -14 69 -71
144 1 1.6713566638090689e+00 1.7134577271966748e+01 1.3554372858535080e+01 -3 38 -11
350 1 1.1507678546084019e+01 1.4321728521697301e+01 2.3632143755429624e+01 32 101 114
138 1 7.7852098434828356e+00 1.6719703412140110e+01 1.8377367229366453e+01 168 68 22
2 1 4.2075331121196768e+00 1.7895262213772359e+01 1.4112323294593720e+01 -3 -14 -99
425 1 5.6479434308696930e-01 2.0077378090081311e+01 1.7814630916828005e+01 44 56 53
341 1 1.0177105898481317e+01 1.3956693525450483e+01 2.1063757404012911e+01 22 -111 46
143 1 1.1529322365853112e+01 2.0168868194321913e+01 1.4393949078624205e+01 -8 82 39
292 1 1.1246003720868321e+00 2.3440019941938047e+01 2.1046314926772382e+01 -39 91 111
223 1 1.1415075737076467e-01 1.9396409603851357e+01 1.3323430384435426e+01 155 116 -1
412 1 5.0700656921134932e+00 2.4770768448414273e+01 2.2187013824185144e+01 -76 -6 -37
393 1 2.8338065495829117e+00 1.8239770418046696e+01 2.0421241485001200e+01 28 27 -88
221 1 2.1334486780940582e+00 1.2939525184639791e+01 2.3475481846375292e+01 -2 22 68
104 1 5.1437981490129854e+00 1.6744019294113187e+01 1.6385577307194254e+01 97 12 -31
166 1 7.1779942584380230e+00 1.2956462150327431e+01 2.2897357351295192e+01 15 -11 -57
247 1 8.3565556093727391e+00 2.4400127217770834e+01 2.4501182223133949e+01 -23 -32 39
188 1 7.2889636679931202e+00 1.3875363503415743e+01 1.8320557258236501e+01 7 23 34
416 1 4.9322998442573311e+00 1.9059300823520697e+01 2.2588500420501241e+01 -7 -1 -27
424 1 9.8503871805951420e+00 1.6971557582504818e+01 2.1749424800436291e+01 52 -22 -44
110 1 5.3997944252397900e+00 2.2979018477347790e+01 1.4114659444854587e+01 22 -117 -30
163 1 5.0888696057009575e-01 2.3585634700100837e+01 1.5581781859615431e+01 -14 -92 34
307 1 4.3710870208482344e+00 1.3101326224021784e+01 2.2001820160803639e+01 -96 141 2
260 1 1.1597204679920676e+01 2.3698351494896581e+01 2.4311572891019779e+01 -71 68 91
418 1 1.1033852274580990e+01 1.3329664901989497e+01 1.5906998660462387e+01 -134 -58 -84
333 1 9.2753853611861103e+00 2.2923877733901133e+01 2.1923738092728975e+01 36 15 42
56 1 3.4599835438564637e+00 1.3937372490501930e+01 1.4827746208682216e+01 -49 108 72
453 1 1.1736845565523632e+01 2.3834115745248880e+01 2.0511352926330076e+01 123 -27 -37
420 1 5.3598851043832036e+00 2.3251588324511079e+01 2.4669607175255432e+01 40 -105 93
124 1 1.4570771144980416e-01 2.3673323605700197e+01 1.2770788271096372e+01 -61 149 -41
4 1 9.6291461204359852e+00 2.0379376237799537e+01 2.4002166494497246e+01 42 -45 28
445 1 5.9281743550608501e-02 1.4118569894104903e+01 2.2384660284752677e+01 103 -20 -44
498 1 1.2353318482944895e+01 2.1018271893279056e+01 2.3863079933663705e+01 33 14 38
321 1 6.8413927296311599e+00 1.8326067869563619e+01 1.2444589115163550e+01 29 1 -27
231 1 9.8387155750133015e+00 1.7543922643520517e+01 2.4623055502311210e+01 -10 -10 39
17 1 2.0009635337149152e+01 5.6370094445892320e+00 1.0544828050439767e+01 50 46 -6
305 1 1.6219158414530778e+01 8.2196544670858152e-01 1.0554351815193630e+01 54 56 85
117 1 1.5994354845333357e+01 5.0583357300627529e+00 1.0782394950450671e+01 64 13 108
500 1 1.5931252013820362e+01 1.2281544308488597e+01 3.3889888306109226e+00 88 -59 32
7 1 1.8225855657829264e+01 3.1258347520034979e-01 7.9012482089283260e+00 82 68 65
414 1 1.9488207506985546e+01 8.4028922975581388e-01 3.8594954354371014e+00 30 -6 63
105 1 2.3170494421152778e+01 5.2855548437583355e+00 1.1428926183852370e+01 11 39 0
394 1 1.8653912795123979e+01 5.5020018586764641e+00 2.3326058313504516e+00 -78 -40 -61
441 1 2.1560387790245855e+01 8.2072219457171993e+00 9.1588586515871961e-01 -29 -32 -4
148 1 1.4962617339665147e+01 8.3137393828411490e+00 2.5240067007654567e+00 -71 99 57
380 1 1.3464849907680421e+01 1.2183875572618382e+01 6.4964845891262808e+00 -30 73 6
490 1 2.2294624458077962e+01 1.0712220441793708e+01 4.9146604590350575e+00 27 -141 -13
22 1 2.0641854468891697e+01 1.2169126633923030e+01 1.0495308021380195e+01 -9 -19 0
324 1 1.9804229306548155e+01 4.2934528642145402e+00 4.9830501428094927e+00 42 -55 67
458 1 1.2555054704162796e+01 9.3741439254290491e+00 1.4869553036037055e+00 -21 69 9
86 1 1.7458408735299937e+01 9.4528895049789110e+00 1.1139491378075035e+00 -69 -101 110
302 1 1.3782467928626083e+01 3.3057508433338381e+00 6.2553937033191627e+00 89 -84 -13
433 1 2.3906352558563075e+01 7.3160665128264881e+00 2.0275449349665453e+00 12 -113 -39
89 1 1.4462248545160884e+01 6.0888321693021634e+00 1.0265732516136281e+00 -13 46 -194
375 1 1.3194669879295686e+01 9.7659579202570139e+00 9.0266105923029976e+00 -11 102 -172
109 1 1.4314173323006356e+01 7.2077960872675577e+00 5.5666426756816252e+00 -122 48 -123
457 1 2.2374333377763005e+01 1.6051185941302006e+00 4.3845509539159568e+00 -12 -13 155
249 1 2.3881721035325757e+01 1.0189464337873686e+01 6.9568105173778276e+00 -38 -51 -46
108 1 2.1488636343282710e+01 5.7750279663927682e+00 7.4964782368421234e+00 48 32 72
429 1 1.5925783523235577e+01 6.7169021558954176e+00 8.1656667307804565e+00 -40 -101 11
304 1 1.4007108746111506e+01 2.2450753358787792e-01 9.2350391235904343e+00 -1 -53 43
258 1 1.8221250705654658e+01 9.2593032970137124e+00 1.1427306035600878e+01 128 -32 83
58 1 1.7319966999285132e+01 1.7392385398199615e+00 5.4992048935572333e+00 -9 0 12
90 1 1.8560518904238375e+01 3.9813992402542717e+00 8.4165326217662546e+00 -65 -26 -105
172 1 1.5788445852711035e+01 1.0663264372790302e+01 1.0661266172389341e+01 31 -155 -6
57 1 2.4740279277642220e+01 2.9370354338364137e+00 1.1517542653785718e+01 -56 -51 52
462 1 1.6417982151689984e+01 5.5573410015648443e+00 3.8163821134086238e+00 -59 50 -9
45 1 1.4541097769951014e+01 4.2584825599454934e-01 6.3218480050173618e+00 14 71 -82
178 1 1.5139653021768030e+01 1.0106421810074174e+01 5.3072621686980410e+00 89 95 -120
313 1 2.3534704822013239e+01 1.0824571813427271e+01 1.5566537590465348e+00 -73 85 15
389 1 1.3785180630253413e+01 5.0730496721383398e+00 8.4350241890660893e+00 39 89 -47
19 1 1.3987724098017768e+01 7.6293365130609292e+00 1.0548478952023471e+01 32 -6 80
1 1 1.9174567958157763e+01 1.1526249952072957e+01 1.2739377371224117e-01 -66 -66 72
199 1 1.7259739700553560e+01 4.4003808106619759e+00 6.4273191138419508e+00 24 59 -6
252 1 2.1985835401554027e+01 4.0574673493991709e+00 2.6426309734844144e+00 -46 -108 -3
205 1 2.0747134568954412e+01 1.0993435068339265e+01 7.4545782168499910e+00 -2 -39 14
182 1 2.2808130661306254e+01 6.3262481165913931e+00 4.3092758292893745e+00 117 -14 60
242 1 1.9456952992222053e+01 3.2683723310413417e+00 1.5432133568037247e+00 4 -14 -58
32 1 1.7587381831742864e+01 1.0217926783867853e+01 6.9536524169481906e+00 -85 101 -118
446 1 2.3413783873478689e+01 9.5849075956275787e+00 9.9790920925268622e+00 19 53 -47
431 1 2.0850865067370439e+01 8.1287618642808255e+00 8.9230933707162681e+00 -54 -33 2
147 1 1.6129963473601279e+01 6.2226946841479647e-01 2.7534222058105811e+00 21 43 76
128 1 2.4389040525355558e+01 1.6720614794738087e+00 2.5078546488091646e+00 7 -50 -54
447 1 1.9471735037281299e+01 8.1619753539590505e+00 3.1599463890345154e+00 44 -28 -79
450 1 2.0921455731754431e+01 9.9034097518480841e+00 1.1801589588896256e+01 150 -62 58
349 1 1.3226884954709748e+01 2.9245394351728646e+00 1.0288053386759783e+01 -60 10 81
468 1 2.0751665581123497e+01 8.2570150431166596e+00 5.3720850613648361e+00 107 11 5
306 1 2.2401186349319214e+01 3.4260135078785448e+00 8.9930307887426526e+00 16 57 -121
125 1 1.5201076268549791e+01 3.2123858794253870e+00 2.9862363113022896e+00 16 -65 -22
183 1 2.0616397026813193e+01 2.1919763991179950e+00 7.0752645693675564e+00 46 151 38
261 1 1.8177033666222741e+01 8.4467296240293663e+00 8.7403704192111622e+00 29 59 -81
230 1 2.4347205169493613e+01 6.2081637978245263e+00 7.0214727115821303e+00 -4 -33 -142
161 1 1.2666952780187440e+01 3.8353873408179862e+00 3.6839828701665587e+00 85 -35 20
299 1 2.2508915454941835e+01 4.4029162305757341e-01 9.9641895028055565e+00 39 -6 89
345 1 1.5634166684826718e+01 1.1570319890836316e+01 6.3531862703875519e-01 110 192 -20
442 1 2.4489573421080685e+01 6.6695634951725422e+00 9.6789422028248229e+00 75 4 -117
227 1 1.5600794810931548e+01 3.2554901463698607e+00 5.7130607053016584e-02 153 55 -40
123 1 1.7530986426855360e+01 6.9335168368086713e+00 1.2385843561503712e+01 -144 -28 -26
21 1 1.4984668686178553e+01 8.9637315699311628e+00 2.0089383352495368e+01 35 62 -125
505 1 2.0816401671840548e+01 2.2883294952637354e+00 1.3743250585392925e+01 8 -9 -30
47 1 1.3572809761149349e+01 9.9394667144146176e+00 1.2960724718198273e+01 -87 106 -72
194 1 1.9828183960089198e+01 1.1965784016054981e+01 2.0244622968539066e+01 51 169 46
293 1 1.6477656561921190e+01 7.1193046427558118e+00 1.4908559954482447e+01 21 92 24
208 1 1.8714053975445758e+01 4.0596667537651543e+00 2.3494876636669986e+01 26 101 31
383 1 1.2837992834089329e+01 1.0688442638369633e+01 1.9431666441966343e+01 -37 79 14
149 1 2.2683457309938760e+01 9.1664121433489587e+00 1.9575051228815070e+01 -79 22 46
406 1 1.6796768711982526e+01 6.5084443042637528e+00 2.0470966391047295e+01 58 122 -42
106 1 1.6266896686808860e+01 4.0230366674168323e+00 1.9149055161233655e+01 65 -34 -17
34 1 1.8921733814777021e+01 8.3957155299082427e+00 2.2548392315490993e+01 -77 8 128
13 1 2.3964412189183978e+01 2.0429873131316381e+00 2.0771570825264792e+01 156 -79 105
382 1 1.2770530926786698e+01 1.0308674187631643e+01 2.3740213506275957e+01 52 20 99
253 1 2.4791585598033528e+01 1.1809395562053095e+00 1.7123974380509420e+01 -38 43 26
297 1 2.1513914956583097e+01 9.7863902853905209e+00 2.1928518194310652e+01 -28 41 -9
426 1 1.8144454729557609e+01 8.7447343443999053e+00 1.6196307512716231e+01 119 -43 39
28 1 1.8787572162656080e+01 3.0246530631106461e-01 1.9108986592496347e+01 20 22 -2
310 1 1.5596574811715159e+01 1.0264793922626936e+01 2.2357462920773273e+01 2 -80 41
164 1 2.2208849942787030e+01 7.2970010205467251e+00 1.4736992978099977e+01 22 96 54
496 1 2.0028441194708041e+01 6.4291561825684633e+00 2.4581297779551200e+01 56 -28 58
152 1 2.3668375535351981e+01 4.5200034700473717e+00 1.4617714113019847e+01 30 -143 -41
165 1 2.2498754742256711e+01 4.7779520141486467e+00 2.4490472234224434e+01 101 -6 116
340 1 1.4882677628938172e+01 1.5500872380849218e+00 1.4526519512342716e+01 81 30 39
107 1 1.7132982833775753e+01 1.1679449850767647e+01 1.3202992964875603e+01 27 25 -96
78 1 2.4514056717862186e+01 1.1098711558391640e+01 1.5826064718876678e+01 -11 -127 -35
195 1 1.6194024362964246e+01 3.0382872239012140e+00 1.2516131671485832e+01 2 -33 81
419 1 2.1898269957684374e+01 1.0034367150680978e+01 1.4201584472668168e+01 106 39 42
422 1 1.9828983230466477e+01 3.9683708254246812e+00 1.7114033968647689e+01 22 89 65
327 1 1.5720612472129684e+01 5.2553619159914691e+00 2.2795718009961970e+01 88 -31 -5
254 1 2.0073085310993751e+01 6.7494279296248161e+00 1.6621053585828381e+01 -8 113 6