LAMMPS data file via write_data, version 4 Jan 2019, timestep = 500000

512 atoms
1 atom types

2.0158586201421969e-02 2.4814841413730292e+01 xlo xhi
2.0158586201421969e-02 2.4814841413730292e+01 ylo yhi
2.0158586201421969e-02 2.4814841413730292e+01 zlo zhi

Masses

1 18.0153

Atoms # atomic

42 1 4.2910085080245963e+00 7.3526466150716026e+00 3.7103320305816405e+00 -36 130 -40
292 1 4.1570823766975620e+00 6.7408116302816730e+00 1.0208691048030465e+01 -49 87 123
389 1 8.8604691246377705e+00 2.4139422284036054e+00 3.4389876809975153e+00 44 96 -52
73 1 1.0019523085114423e+01 1.1573107014059676e+01 5.1960652548732726e+00 -60 21 12
182 1 5.6694924055992884e+00 5.7350808858914917e+00 1.1847658996284074e+00 104 -8 65
177 1 1.3595600477112888e+00 8.4057714962356016e+00 6.3223562811085454e+00 -44 -86 58
141 1 5.8920250715399147e+00 4.0197867327003216e+00 8.7991490304062747e+00 119 28 -35
490 1 7.1561278855063222e+00 5.2820360509490785e+00 6.5203022233937320e+00 19 -157 -12
205 1 1.2386458929697859e+01 5.0662585743481987e+00 3.0895604792892803e+00 -9 -39 1
121 1 7.1946003601872321e-01 6.6309988318674506e-01 8.8530653533974990e-01 1 43 64
221 1 5.4208812512807807e+00 2.3947729609558288e+00 4.5778942612439971e-01 -10 32 61
20 1 1.0263973272258768e+01 1.1695349130697743e+01 1.8422201792337849e+00 94 7 -21
212 1 2.6319047664390949e+00 1.0580637535144062e+01 4.6994928387138470e+00 17 -34 -73
284 1 1.4615121024167130e+00 2.5946668577318288e-01 6.2909860947496945e+00 -117 -84 -12
61 1 5.8477079173176216e+00 4.6575949016295013e+00 1.1622919996842208e+01 46 16 81
489 1 7.7404536989932105e+00 8.9995452815954042e+00 7.4525105671549916e+00 78 112 -42
190 1 4.4669023223251525e+00 9.5121239016469072e+00 1.0846633589644791e+01 126 79 6
317 1 8.1195283881613722e+00 7.3851689790204640e+00 6.6906592800377984e-01 140 -21 -64
474 1 1.0263592121906772e+01 3.4686953454268772e+00 1.0047041246199958e+01 -13 -34 -13
14 1 9.2830259802601613e+00 6.9313235623643559e+00 8.1648045364316175e+00 113 -23 -40
217 1 9.1845996257515399e+00 1.6923598255425578e+00 6.1017720176146453e+00 62 -65 102
372 1 1.5376725064800600e+00 7.3714570267605026e+00 1.1559607077219841e+01 26 -4 3
67 1 4.8904599827050959e+00 1.0738511473485953e+01 5.7766925877440989e-01 -78 -44 -5
309 1 2.5594296419368572e+00 5.7943935889458382e+00 5.9988388368875869e+00 58 84 -78
153 1 3.8078097612782806e+00 7.0690121539546025e-01 1.0139739185145485e+01 -35 -6 57
397 1 8.7274271879247411e+00 9.4757796008840045e-01 9.8489210443437791e+00 -10 60 -33
160 1 6.6509636541903623e+00 1.8340520079847769e+00 6.8672657522629104e+00 -3 105 -5
369 1 1.1207999920805849e+01 8.1473267326929051e+00 6.2622447627002984e+00 -54 104 40
437 1 5.0807595983718223e-01 6.9777487311324586e+00 8.9699700837867944e+00 58 -33 -160
341 1 6.6790869976240108e+00 8.9169012671465069e+00 2.3109352031900618e+00 18 -100 40
100 1 1.0828953864916029e+01 9.4190408964830716e+00 3.7503336660088253e+00 46 -141 -40
224 1 6.8259241238298189e+00 1.0253921883222079e+01 9.8524316714717131e+00 135 -160 1
256 1 1.5879333011394896e+00 1.2069079626182941e+01 3.4510169554535797e-01 29 3 -46
498 1 3.8218240561203820e+00 1.1687726293456695e+01 8.9450134417466280e+00 30 5 45
511 1 4.8271969348573895e+00 2.6233411599468459e+00 4.6460151573347961e+00 27 23 87
66 1 4.1256830948010652e+00 9.0155042500831541e+00 7.1346995504591719e+00 -32 60 -60
13 1 9.6734152383720442e+00 4.0997004747470207e+00 7.7120051565563870e+00 150 -73 97
296 1 2.4563571734679703e+00 4.7698279681463784e+00 8.7553120098886144e+00 -31 -79 111
17 1 4.8977661175792848e+00 8.3298717905087027e-01 2.5907396740861586e+00 55 42 -6
215 1 8.9575609374587839e-01 1.1105299162837142e+01 7.4764125089259075e+00 -33 -167 -47
417 1 8.3211233229702692e+00 9.6104476637878200e+00 1.2016553504560129e+01 25 29 39
271 1 5.3522153302162030e+00 1.1240997438516638e+01 5.6323187424389429e+00 71 43 -90
442 1 1.8409757422540061e+00 2.4261610148044164e+00 1.0628096363385216e+01 79 0 -126
303 1 1.0073134163356954e+01 5.5732061920122673e+00 1.7451561442293799e+00 38 -75 188
398 1 3.3445989259095303e+00 1.8875492146216197e+00 7.4902348366690319e+00 -108 -89 1
238 1 7.6259807301174201e+00 4.9244628140626645e+00 3.7480283457419410e+00 114 25 -41
165 1 1.1809121245771470e+01 5.3575530022180322e+00 5.9493907703422142e+00 109 -14 109
349 1 1.1293839929585641e+01 3.7469263012226861e-02 5.0117268178286132e+00 -49 13 80
273 1 3.0010652996800191e-01 8.2496824217131532e+00 2.0035242896872694e+00 4 141 83
378 1 1.0274611532572546e+00 3.1899941707885788e+00 2.4998684766169532e+00 14 -25 -67
407 1 7.3327516414048670e+00 1.0948422883780475e+01 3.9314127808858879e+00 -18 11 87
464 1 1.0091747203470161e+01 7.6557561252981303e+00 1.0981464386164056e+01 39 15 16
325 1 3.5844433057391099e+00 4.5535178511138943e+00 3.1069050424534583e+00 -76 54 64
445 1 5.8574731109335039e+00 7.3440748893704217e+00 5.8510059273075941e+00 99 -10 -44
208 1 2.6265165712490259e+00 9.5240760513858191e+00 2.1361222284151173e+00 34 107 28
298 1 2.6251867147904484e-01 4.6665864808112518e+00 5.1213077152069744e+00 -11 54 35
75 1 1.1789752456913558e+01 9.8470682367656082e+00 8.4751828982867092e+00 -62 25 -11
312 1 9.5680254056135858e+00 1.2173046502041367e+00 5.9631514402700359e-01 0 61 44
293 1 1.0467613325904146e+01 1.1938854505766278e+01 9.0637816665883602e+00 15 93 30
494 1 2.8371538128388543e+00 3.4996721125955523e+00 2.8978156641599202e-02 -37 154 -76
448 1 8.1534383852615289e+00 3.5781434115537460e+00 4.9202763973940472e-01 44 -49 -39
237 1 1.1856735872639467e+01 4.5242055871167031e+00 1.2387656295708203e+01 1 12 -32
399 1 1.3764355589174524e+00 4.6994682450523229e+00 1.2417225429919782e+01 -49 8 -25
79 1 4.8406791867811796e+00 4.9406644783818408e+00 1.7605608821059434e+01 -134 -36 122
297 1 1.1284526878700474e+00 6.2584888506495364e+00 1.6471204170428454e+01 -31 34 -7
172 1 7.3700505514417651e+00 4.9924458053822773e+00 2.2542665599146432e+01 44 -145 -3
101 1 8.3829289654879400e+00 4.1492957398281787e+00 1.9011670286433230e+01 1 33 111
35 1 6.0755686673230649e+00 8.8329532683407619e-01 1.7993332741962888e+01 -9 13 -80
98 1 6.0530966181217556e+00 5.6874659247414368e+00 1.9964443932666384e+01 111 64 -32
352 1 3.7154744050972117e+00 1.9470017924512251e+00 1.7345546787995005e+01 -32 -61 -109
302 1 1.0871679797293572e+01 2.7753758142649088e+00 2.3135216964942813e+01 90 -75 -12
281 1 3.6813595238011265e+00 3.5040114391835591e+00 2.0921350554808367e+01 23 -55 126
452 1 5.4319939877815617e+00 7.1148688125910002e+00 1.3402473544758452e+01 11 14 119
37 1 4.6013371193339242e-01 1.0219725975754586e+00 1.2658650594530968e+01 77 -29 -25
405 1 9.2014278235687250e+00 4.0708867676008564e+00 1.4886777330520086e+01 -6 -10 76
306 1 3.6633170903415917e+00 5.3991697116432569e+00 1.4918169187020148e+01 18 55 -124
102 1 1.1127976869566579e+01 1.0926105343997046e+01 1.9442200409155248e+01 56 -34 45
223 1 6.7327096561092095e+00 3.3623488543710942e+00 1.6906963089006386e+01 144 115 -8
323 1 1.1536382796288127e+01 1.0305144023699073e+01 2.2456933653312948e+01 -25 -135 61
305 1 1.0050373695607290e+01 9.3352256348726250e+00 1.7449506415115394e+01 71 63 86
234 1 7.4410052555315582e+00 1.0696638553945180e+01 1.6620785234729748e+01 111 5 11
47 1 5.1174126560860058e+00 1.0572391500431399e+01 1.3037641367650405e+01 -80 105 -84
95 1 4.3602457781409001e+00 9.9499310330835460e+00 2.2605749407891807e+01 88 106 36
337 1 9.3723027583788081e+00 5.5003203651752486e+00 1.2562808111379661e+01 38 -11 -63
239 1 9.9282033889879369e+00 5.6640754161634819e+00 1.7042479919373630e+01 76 -12 -12
496 1 3.8307796293090250e+00 8.7173698371143828e+00 1.9021032596477010e+01 69 -33 65
386 1 4.9475040861209518e-01 7.4923082785633657e+00 2.3198199706760985e+01 95 -9 8
88 1 8.4218385652452454e+00 1.0469538471453275e+01 2.1786105503950168e+01 -21 64 58
367 1 7.2690469701212912e+00 2.0611311496010387e+00 2.2103956585487541e+01 -8 26 50
509 1 2.1690568822966698e+00 1.0900394533986329e+01 1.8930805743886221e+01 189 71 -92
34 1 2.9111249901008801e-01 1.9236296931250301e+00 1.5248520914496893e+01 -92 3 134
145 1 1.0535932100154476e+01 1.1884806938460180e+01 1.5655340716629542e+01 59 2 -108
246 1 5.5348156414115302e+00 7.9189672489162337e+00 1.7012079555411219e+01 14 28 160
364 1 2.8838658771214671e+00 7.6680403072712435e+00 2.2383807026937177e+01 163 31 47
76 1 2.3359786474549518e+00 6.5947717755859490e+00 2.0074758887767761e+01 80 82 -23
332 1 2.3121337928429642e-01 1.2099612948966219e+00 2.0172875171356822e+01 40 -61 -53
257 1 7.1035038380936708e+00 1.2168014311519650e+01 2.3638895537438714e+01 -44 35 63
394 1 9.6848447247332707e+00 6.0524129521399725e+00 2.1696912975346137e+01 -82 -34 -50
379 1 1.2164800814560937e+01 5.0093601554707687e+00 2.2472381930304536e+01 151 5 67
106 1 3.5877725005208458e+00 3.6980424871353196e-01 1.3280326420269386e+01 62 -32 -19
57 1 1.0856802111340453e+01 2.5198210352604096e+00 1.7654158509800720e+01 -55 -29 55
46 1 1.1937627039338761e+01 2.8574396869972327e+00 1.4973486844658209e+01 45 -46 98
83 1 8.0482990738713038e+00 8.1273113415760303e+00 1.9460117885008405e+01 29 89 40
502 1 5.0082220530340562e+00 1.3010507403699825e+00 2.0433291985215039e+01 -3 -55 2
383 1 2.0865095538737393e+00 1.1647665859840881e+01 2.1818346102817181e+01 -34 72 13
117 1 1.6333817269858597e+00 3.4088500897555645e+00 1.8677686022756170e+01 68 19 102
41 1 1.0954339416643226e+01 8.3743936065897628e+00 1.5075938434412233e+01 52 -110 24
120 1 9.8152120418228197e+00 2.2203947160028781e+00 2.0607017558206486e+01 -43 -30 16
424 1 6.6897623660725749e+00 2.5322012916750420e+00 1.3351467990093495e+01 43 -6 -47
163 1 3.9125218742881773e+00 9.7710803127464274e+00 1.5827065628951495e+01 -11 -91 30
508 1 4.2529428477463602e+00 2.7190568728240367e+00 1.4571737028221154e+01 32 65 -113
150 1 4.9320809769442775e+00 5.8745431342230283e+00 2.3251124653700224e+01 66 -4 69
310 1 2.0559177837451585e+00 2.3845376400992420e+00 2.2636047200854080e+01 7 -69 42
321 1 9.9247551830000997e+00 8.2525868662392430e+00 2.3335891656442669e+01 43 13 -31
433 1 7.9382173290961147e+00 7.6985182365383977e+00 1.4692204471964802e+01 14 -134 -42
87 1 1.1562769039321475e+01 3.0821918766945344e-01 1.4262828831141720e+01 21 42 31
91 1 1.1180010882494811e+01 7.2220571440869383e+00 1.9755567318823751e+01 17 4 13
192 1 6.3012564448019557e+00 1.2197924282885394e+01 1.8514077169762750e+01 -87 70 -39
167 1 2.4543781857160045e+00 8.6031189338612872e+00 1.3887078005110686e+01 135 -47 34
392 1 9.1258967270622353e+00 5.3002018622907865e-01 1.2766575762137682e+01 53 -11 -45
387 1 7.6418574713954719e+00 1.1719643439465669e+01 1.3908851931114720e+01 45 -48 121
84 1 1.1270768361816183e+01 1.0673514880086740e+01 1.2922074342924549e+01 36 150 30
328 1 6.1671031259156894e+00 1.0056658161897127e+01 2.0520375703304591e+01 44 28 21
170 1 5.9430720364973562e+00 2.2888054918510689e-01 2.3697301343248444e+01 -14 37 3
44 1 4.4749690585933011e-01 6.8588447433042904e-02 1.7449198741785739e+01 -17 19 63
21 1 4.3202175038864556e+00 1.6776355793401894e+01 3.4652351054608950e+00 23 57 -116
268 1 1.1981129795021115e+01 2.2445999684065661e+01 9.9626478996002454e+00 -160 20 -4
39 1 9.2808578418016392e+00 1.7978042952874773e+01 6.9360234845606525e+00 20 74 14
176 1 4.3542674314350838e-01 1.8833536390751302e+01 3.3985317731510651e+00 -150 -77 -102
139 1 7.2656589747902363e+00 2.2710580066439174e+01 4.9124587382472065e+00 2 22 -19
440 1 3.9534713123980683e+00 1.5928518399976664e+01 1.1378468901726306e+01 -63 -67 72
189 1 4.8588504031421218e+00 1.9464790689303104e+01 4.7942615064970617e+00 111 -130 -22
324 1 3.8181607100901216e+00 1.7772495916787072e+01 1.1205604845260349e+00 57 -61 73
371 1 6.8191288698709736e+00 1.5174562243094169e+01 3.0826589249463177e+00 -37 73 -59
376 1 5.6955779200807788e+00 2.4205065860888254e+01 6.4120011659206080e+00 -149 -113 -19
363 1 6.7862822931349349e+00 2.0307126228063971e+01 3.3660373600319620e+00 13 -57 21
283 1 2.0599805751468030e+00 2.1318333261331503e+01 5.6404296620146859e+00 43 -5 37
93 1 9.7802315291086170e+00 1.6578316819376333e+01 9.4589572325454014e+00 -6 -48 84
23 1 1.0804613126993196e+01 2.4447290685765875e+01 2.2932597991091308e+00 83 33 92
262 1 1.0242390653187330e+01 1.9678740721192593e+01 4.8731230317670935e+00 51 23 -44
338 1 9.6814610996621919e+00 2.2337422342367681e+01 1.1448989637224496e+01 10 55 55
122 1 7.5713928177021126e+00 1.2796534101065021e+01 1.5753957043589926e+00 -11 2 21
123 1 4.1030730363163039e+00 1.3128331299304248e+01 1.7047153265386343e+00 -152 -32 -21
388 1 1.1603177591465614e+00 1.3204974338592125e+01 1.2264146225789206e+01 90 -12 -15
99 1 1.0390225189240676e+01 2.4258885151797447e+01 8.1601336655501928e+00 58 29 55
26 1 6.8788521257995470e+00 1.7177589893644917e+01 1.0770274178525771e+01 -68 45 54
410 1 2.1629848846272202e+00 2.2912189561395532e+01 1.0252465771238718e+01 59 118 17
261 1 6.0745024524127915e+00 2.0534524342638786e+01 6.8710531111553197e-01 24 58 -79
187 1 2.8325597355834136e+00 1.6550538802385915e+01 7.7492326459459600e+00 20 61 -50
124 1 1.8801606819654750e+00 1.3043138383186859e+01 3.6388484980823028e+00 -56 151 -40
455 1 1.1553185267267912e+01 1.3329325303850379e+01 6.9047175112075010e+00 65 106 48
12 1 1.8867548620005627e+00 1.5947757447705326e+01 4.4475925173248037e+00 40 -41 114
33 1 7.9138250594868973e+00 2.0584894763055686e+01 8.0373942100176059e+00 -106 -51 -32
428 1 6.4119615003073598e+00 2.4682055798827435e+01 1.0664730263476264e+01 23 -74 2
159 1 3.6566420903763985e+00 1.3271909076557858e+01 1.1504958642731188e+01 -45 77 125
411 1 1.0278292328154778e+01 1.5275738287558342e+01 1.1899312069857505e+01 34 127 156
461 1 7.7092983139221891e+00 1.3782474308167529e+01 5.2005164166745184e+00 -57 84 -1
507 1 5.5464718486639244e+00 1.6768984655246356e+01 8.5062623580929895e+00 -40 61 -39
200 1 3.2372729699401477e+00 2.3721717008917658e+01 5.0896299987194054e+00 107 61 -26
330 1 1.1603036035308211e+01 1.9284614724644115e+01 9.8091025327884847e+00 -7 50 -2
49 1 4.7415793598942724e+00 1.9600078823731735e+01 1.2359642448401859e+01 -20 35 -4
131 1 1.2130748696216265e+00 1.4017419814319952e+01 7.7097195847889513e+00 -33 12 14
385 1 9.5679696174602338e+00 2.1519118075158413e+01 2.3185592527114816e+00 36 76 57
493 1 7.4356966161450222e+00 1.4427560771272933e+01 1.2208479003565122e+01 -78 136 41
327 1 2.6331558962509027e+00 2.0069168101776409e+01 3.2472742988075463e+00 75 -27 11
193 1 7.4032420400773304e+00 1.6004292762283661e+01 6.8077449823855080e-02 -142 19 4
133 1 6.8605780703443049e+00 1.4230646541683486e+01 8.0215177925397416e+00 -64 114 -48
345 1 2.1398382487733217e-01 1.8592713952693341e+01 8.9232641743029273e+00 107 193 -24
359 1 7.3680211323016023e+00 2.4625227541739619e+01 2.9875811246221526e+00 -59 12 -20
340 1 7.9869168486677848e+00 1.2904987986735518e+01 9.9024206930331804e+00 89 22 33
469 1 6.0776482504881466e+00 2.2713884328394940e+01 8.9156159542194278e+00 27 43 57
499 1 8.6999147400190893e+00 1.9461449222899098e+01 1.0307720884290690e+01 73 -3 -107
151 1 2.5888806233616317e+00 1.9596666229504862e+01 7.7047084707032436e+00 -67 -82 -26
97 1 2.6366383723017139e+00 2.3923901273889669e+01 2.3585414681010608e+00 47 92 33
301 1 9.4277155402181982e+00 2.2253264946179979e+01 6.6297725970116241e+00 102 -7 -23
103 1 1.5480806004046976e+00 1.6043232254677868e+01 1.0262139036623807e+01 -22 70 -65
63 1 5.7366045388681197e+00 1.9241591905654484e+01 7.4566426874014686e+00 -5 -60 -112
351 1 7.1267040114152849e+00 1.6929285103008162e+01 5.7246395944360655e+00 -21 -18 5
391 1 1.0426716268293818e+01 1.5606223501043447e+01 3.7188928519114093e+00 -93 -25 -48
43 1 8.4718777170447943e+00 1.7722562174874614e+01 3.0733124351967387e+00 -58 -66 -8
365 1 3.9199425022955938e+00 2.0785205635045642e+01 9.8198237608828443e+00 41 77 -42
346 1 2.6347814161895404e+00 2.0338507411753149e+01 2.8740538826796463e-01 61 57 -184
347 1 7.2466818647450513e+00 2.3449410080204984e+01 5.8844370911252164e-01 -55 -22 -19
348 1 1.1653480740694233e+01 1.3047349745079064e+01 1.1561591785065676e+01 -30 -59 106
390 1 3.8215933699658211e+00 2.2842295477135419e+01 2.8402975641321471e-01 -1 -20 4
70 1 1.1553456195554663e+01 1.5994031377432297e+01 9.0508433884470652e-01 24 -75 1
478 1 1.1633893189653449e+01 1.8647417621961587e+01 9.5674650912794978e-01 53 14 4
353 1 2.7590763406685642e-01 2.3111026901735656e+01 8.1030292125686838e+00 -142 77 124
406 1 8.9018991602762156e+00 1.9107001442867567e+01 3.7169075272159080e-01 55 121 -38
82 1 1.2047052582223580e+01 2.1982804076877901e+01 5.2966859192346236e+00 -71 -19 9
512 1 1.9635661183420123e+00 1.8417962073445175e+01 1.1999672258759292e+01 53 -64 -6
207 1 1.2305521934874497e+01 1.9095688231960875e+01 1.2281507000346434e+01 4 -54 5
104 1 1.1216654210089722e+01 2.1295693280272399e+01 1.3819603615166065e+01 105 19 -48
181 1 4.2502283864288728e+00 1.3484593711933137e+01 2.0446082808648679e+01 66 43 -65
335 1 7.0475454157801050e+00 2.1264160842807058e+01 1.2571880202986316e+01 -24 46 56
344 1 5.4786307811142461e+00 1.8573770153351742e+01 1.6598962780061729e+01 65 -40 101
316 1 2.3619198324983981e+00 1.6822658757816932e+01 1.4708168422170134e+01 104 63 101
503 1 1.2016970522574375e+01 1.6751992683012379e+01 1.3716209604394685e+01 5 -26 46
68 1 9.3440251171508297e+00 2.2908045375140105e+01 2.3716227704943773e+01 -9 -30 7
186 1 1.1074175988483892e+01 1.4586905733214474e+01 1.6996991840204295e+01 -3 111 58
251 1 9.9705123393448005e+00 1.5067279837501649e+01 2.3232801178089915e+01 -44 28 -59
194 1 2.0720468743054674e+00 2.1590629679044440e+01 1.9278235248314004e+01 46 170 41
243 1 2.8751939631965233e+00 2.4287833477581600e+01 1.6291765966787633e+01 -16 15 38
89 1 1.0354089225179623e+01 2.4125395429846797e+01 2.1142112077580244e+01 -13 40 -191
434 1 8.7095981233963222e+00 2.2775398555398894e+01 1.9576903791048888e+01 110 -22 -94
270 1 6.4441011890604534e+00 1.6242965217265375e+01 2.0557058879281310e+01 -19 134 118
196 1 4.4191382544304183e+00 2.3234565785884921e+01 2.1819364142778749e+01 19 98 28
144 1 2.4670061500497495e-01 1.5149283197231473e+01 1.4082014993842584e+01 -3 31 -17
229 1 1.2374809954455161e+01 2.2148999389300819e+01 1.6257275503688888e+01 23 3 49
313 1 8.7719505856984412e+00 1.9559396911492296e+01 1.4012914742934322e+01 -69 76 30
491 1 5.4322765709069465e+00 1.7133059275105520e+01 1.3880385369179548e+01 -25 -3 -4
60 1 2.8085982069181168e+00 1.7078100825131703e+01 2.2426467962170193e+01 -24 -35 58
483 1 1.5652302060834369e-01 1.9037014279811586e+01 2.0678264610183057e+01 21 40 4
9 1 1.2190143475538381e+01 1.8226717295131294e+01 1.7775509947771578e+01 -48 42 10
274 1 3.1830375371015185e-01 2.2074817452287292e+01 1.7584989184675717e+01 -56 14 -16
168 1 4.2439129979394528e+00 1.2491081872068225e+01 1.6189260388357841e+01 60 -139 -148
431 1 1.0697674573601713e+01 1.3572402608955588e+01 1.9394147279082532e+01 -67 -36 8
446 1 1.0701815534807702e+01 2.0604300594501019e+01 2.1616143647649380e+01 16 61 -56
183 1 7.2421233051505690e-02 1.8999198101612240e+01 1.4661523653582703e+01 41 143 34
179 1 1.1854701097769857e+01 1.5383239257492470e+01 2.1606369692602673e+01 -86 -90 -44
249 1 2.2700858247923104e+00 1.6316779900026756e+01 1.7386159266550745e+01 -50 -63 -51
166 1 8.2735490926608808e+00 1.8590731029945147e+01 1.7413500138858513e+01 20 -12 -59
326 1 9.0089372349031578e+00 2.1124665081447976e+01 1.7318119794766094e+01 16 120 37
136 1 5.9148395041076096e+00 2.2278020787329158e+01 1.9980465551979133e+01 20 -69 108
27 1 8.3615767979509901e+00 1.7034337687764989e+01 1.3995102933575803e+01 19 -52 -1
479 1 4.4241387283213331e+00 1.7056321612468167e+01 1.8926547434587420e+01 0 -43 -42
146 1 3.3856805967226644e+00 2.1958389713518923e+01 1.3581800768368314e+01 -29 -29 38
48 1 8.2542001837906867e+00 1.8342326409784594e+01 2.0234019325780707e+01 -14 74 -8
58 1 5.6864152712329501e+00 1.7903592262068056e+01 2.3503552194371576e+01 -9 3 1
416 1 1.0449255208149209e+01 1.2463170308537276e+01 2.4078769274295819e+01 -7 6 -29
3 1 7.4381614145869224e-01 1.4314362352684361e+01 2.4587567488502998e+01 35 49 -28
275 1 3.6193583623453168e-01 1.8981253923712007e+01 2.3641336730141422e+01 77 -1 63
213 1 2.0412620354931366e+00 2.4370753023283612e+01 2.3485251819280133e+01 -19 -1 -15
360 1 7.7212821030420526e+00 1.4234949690149540e+01 1.9136144154824439e+01 -85 -87 113
277 1 4.2148077140178319e+00 2.2457494786061918e+01 1.8040592926185195e+01 65 61 144
219 1 1.9749002333810335e+00 1.5284609624921609e+01 2.0530611948406538e+01 -78 -10 -20
157 1 3.2606677784695530e+00 1.8985452461714836e+01 2.0129971104843317e+01 -15 11 69
460 1 4.8777672388923241e+00 1.3826011840915571e+01 1.3714556865773076e+01 -137 143 -13
31 1 9.4653263897029412e+00 2.4762060964889997e+01 1.7216117629631306e+01 -25 -53 101
128 1 2.0932718598399060e+00 1.3679235249319591e+01 1.7725114009921363e+01 4 -41 -49
158 1 1.1540156170080904e+01 1.7468687287507720e+01 2.0350233967364499e+01 -39 47 -80
218 1 5.3296347426466051e+00 1.9924619197897165e+01 2.1574220349090165e+01 -100 24 -34
1 1 8.3047059757416122e+00 1.4250628248955080e+01 1.5633280069397554e+01 -64 -71 73
354 1 3.3980865869026808e+00 1.5406282382838011e+01 2.4354354924754794e+01 42 63 13
432 1 6.1958499348698171e+00 1.5194581620665048e+01 1.6500414309867129e+01 32 -63 48
504 1 1.0531208170043699e+01 1.6972082455574416e+01 1.6027678124538816e+01 -73 -7 30
276 1 8.4086855904062752e+00 2.0244202523674417e+01 2.2709346157181226e+01 25 207 -43
235 1 6.6509469467189675e+00 2.3726579634814200e+01 1.3178876203164529e+01 -33 -122 130
425 1 8.9935338659806396e-01 2.3376290443126205e+01 2.1176164216023999e+01 50 53 53
419 1 1.1588178725571261e+01 2.0689270366482418e+01 1.8300225165213703e+01 89 26 35
439 1 5.8403386728405309e+00 1.4519873008614468e+01 2.3092208179273086e+01 29 -85 -138
110 1 5.3602391232804845e+00 2.1623528413794094e+01 1.5694715314064636e+01 12 -112 -37
451 1 1.2107782098631772e+00 2.1704611442701196e+01 1.5186671888290569e+01 124 37 -4
71 1 6.9607433518989383e+00 2.3739032308827969e+01 1.6200522687618545e+01 97 -80 -120
279 1 2.2030695161714484e-01 2.2817858855554917e+01 1.2471199402995278e+01 -68 132 66
5 1 2.4294744157989200e+01 1.0160119805939809e+00 9.1596616611372852e+00 126 71 15
373 1 1.4619989589312436e+01 6.4620922546286108e+00 9.9000267248583533e+00 76 8 -79
248 1 2.3795981537201008e+01 9.5397251379447336e+00 9.2272155581565070e+00 -39 32 14
280 1 2.1166743890711984e+01 9.0696808933425288e+00 8.7969131566376753e+00 40 -56 131
501 1 2.1935995469063833e+01 2.3174653098693279e+00 5.3109633707459389e+00 58 26 8
289 1 2.2233077747088718e+01 9.6135989435981468e+00 1.1193213743820305e+00 25 16 -25
361 1 1.5367512565048814e+01 6.1529402240917621e+00 4.5980833826352203e+00 -65 97 86
209 1 2.1489784744544746e+01 1.3891120359515046e+00 9.8512402539468908e+00 -27 3 -2
156 1 1.6991577463644887e+01 5.1005888236153316e+00 1.9993493690539825e+00 54 -29 44
15 1 1.8090255105386539e+01 9.9195421676602322e+00 2.8572704513900031e-02 -43 -6 -157
465 1 2.2584104237437604e+01 5.4974300005874053e+00 3.4508016680258429e+00 73 91 -15
72 1 1.7549837948041436e+01 1.5488369556354789e+00 2.5105133777312236e+00 31 72 36
422 1 1.6682290040421567e+01 1.0666564181928461e+01 9.6491027068435749e+00 18 94 78
55 1 1.5985776811835526e+01 2.7703639914460831e+00 8.4274761192881509e-01 46 81 -39
210 1 1.7112798948439359e+01 2.3466057865083862e+00 4.7705177360748721e+00 -47 5 63
24 1 2.0973862228079426e+01 9.6334584579042257e+00 4.6743700030416679e+00 3 -63 78
495 1 1.4122679993997442e+01 9.6384769919186830e+00 3.1893916722089592e+00 -43 -23 -38
409 1 1.6396013981762295e+01 7.4855908665416813e+00 8.0142809448162455e-01 -46 2 86
333 1 2.3717529614427018e+01 8.3009852256412984e+00 4.0850902038413652e+00 41 20 47
232 1 2.3945930963618771e+01 1.1968030017598860e+01 4.1119637154787272e+00 65 37 31
105 1 1.3659515676610276e+01 8.1827752185062135e+00 5.6775276742950069e+00 0 49 6
381 1 1.9447915871714500e+01 1.0764286091936011e+01 7.3851463943436002e+00 25 -130 38
174 1 1.8528896739318075e+01 4.5487672218905031e+00 4.4622490626318072e+00 17 99 -66
467 1 2.2342480377771206e+01 4.8161996008293704e+00 6.8379815094117200e+00 -10 110 95
485 1 1.3932308608153567e+01 2.9653261993363427e+00 3.1125091960929723e+00 -7 -43 47
130 1 1.7121851265944187e+01 9.4302794504302963e+00 6.1480213785368223e+00 -79 -22 86
185 1 2.2613678422208604e+01 2.2235236938716985e+00 1.2128690029207309e+01 -14 23 7
393 1 2.0890756952334012e+01 7.3953403603518701e+00 6.5561087500733839e+00 41 20 -102
62 1 1.9567327542840328e+01 2.4537003784195508e+00 7.6881667295495482e-01 20 -68 -4
111 1 2.3999206339211899e+01 1.0852335791199781e+01 1.1764135374163855e+01 -59 -7 91
278 1 2.0853648207186328e+01 3.4779705698333063e+00 3.2551338978959903e+00 -173 -97 59
294 1 1.2859385758287761e+01 8.7965485750426460e+00 1.1061016423557984e+01 25 141 -88
107 1 1.2954589932741653e+01 1.1628018635185828e+01 1.5121276018880065e+00 31 21 -86
230 1 1.8020787971885088e+01 2.2811421973554347e+00 1.1160504933241773e+01 -19 -28 -144
113 1 1.4907261764269021e+01 1.0125637905833319e+01 7.9564722572727522e+00 -15 7 115
114 1 1.8308304819383615e+01 6.5910751281069020e+00 6.3462837394418266e+00 -10 -13 35
173 1 1.5059632962002842e+01 3.9234343798878788e+00 6.2229339073072572e+00 -7 55 3
486 1 1.3594814253529160e+01 1.3541783598438081e-01 1.5097682206449032e+00 -10 5 -30
231 1 1.2837808432999447e+01 4.7529246184271621e+00 8.7997371917957068e+00 -7 -13 37
228 1 2.0394037313799878e+01 7.8431967080813800e+00 1.0995103871865584e+01 -97 42 45
473 1 1.6759418846565854e+01 1.0079635047814643e+01 3.4426006847079176e+00 -57 -33 32
154 1 1.3867940443986935e+01 7.0206408350541620e+00 1.8777460019523229e+00 106 -12 -19
51 1 1.8746480828894043e+01 1.2306274003070625e+00 6.6711120072681132e+00 125 92 -48
25 1 2.3070228492269042e+01 1.1490852417747055e+01 6.8164514001383845e+00 69 -43 -48
458 1 1.4349995404941236e+01 2.7992906402468138e+00 9.1721869511301914e+00 -24 69 -3
288 1 1.7750324065851196e+01 8.2916729730174001e+00 1.0780875355320367e+01 -77 -88 -44
162 1 1.9717960120191879e+01 1.1799653237973869e+01 1.0089577457512346e+00 -21 -28 -7
202 1 2.0163295054323960e+01 4.8952627641260520e+00 1.1371843064315273e+01 12 64 8
415 1 2.0025439282503275e+01 7.8004170738378784e+00 7.6967085311480010e-01 -91 -12 31
307 1 2.4373613851635106e+01 1.5068575067658918e+00 4.4396997013583714e+00 -103 147 -2
240 1 2.0468274457884291e+01 3.5052793942210618e+00 8.5703741881983095e+00 -199 167 57
169 1 2.3027879629301996e+01 4.7485596709773779e+00 1.1656676849300066e+01 -18 46 57
29 1 2.4181163212209082e+01 4.1629707075686655e+00 8.9661472425148467e+00 139 -65 -23
334 1 1.7335468314291962e+01 3.0311191075842800e+00 8.3827833478090721e+00 24 91 53
132 1 1.7377310473838264e+01 5.7295577102391908e+00 9.0313005271578888e+00 -62 39 46
52 1 1.3345810540819079e+01 1.4991285319071526e+00 5.5549104359634800e+00 80 -97 153
180 1 1.4596495383470593e+01 4.3227724611491802e-01 7.6458902699606774e+00 -23 301 -34
408 1 1.9019418604177378e+01 8.4916827161352835e+00 3.0668563215563331e+00 -146 -9 -2
396 1 1.2929660274531155e+01 1.3007522750190976e+00 1.1462952767786696e+01 2 -12 7
198 1 2.1514759080659072e+01 1.2319018313496562e+01 1.0856303995609320e+01 -21 38 10
449 1 1.6073701135968843e+01 1.2168681285349512e+01 1.1243102787465176e-01 -137 66 107
295 1 2.0878786613673885e+01 1.2386500289086772e+01 3.4576182106199997e+00 -62 60 -49
506 1 1.4970923852613488e+01 3.2571813029806007e+00 1.2247123515330957e+01 32 -55 -44
30 1 1.4900703375470723e+01 1.0213170315681298e+01 1.2067890513720155e+01 -83 97 31
69 1 2.4797251580900895e+01 5.6248444114294243e+00 1.6337201975214284e+00 -11 -26 -66
112 1 1.5602357591904873e+01 1.0298798151428417e+00 1.6284801184071746e+01 65 60 -43
291 1 1.5087389428279829e+01 6.3599132568411809e+00 1.2469184070803768e+01 37 139 64
457 1 1.7525249511639238e+01 1.0112223557976202e+01 1.3839734065050138e+01 1 -20 154
152 1 1.7611276589119154e+01 7.0538165209435055e+00 1.3324007770172772e+01 24 -144 -49
510 1 1.8386363250014575e+01 7.4465136913583319e+00 1.6920924483216691e+01 -37 205 62
161 1 1.4607126060027936e+01 2.2623418780958371e+00 2.2840135808999154e+01 75 -37 18
92 1 1.9671017197082740e+01 1.0308816392516240e+00 2.2878421462696291e+01 -80 30 -96
164 1 1.7950420733121049e+01 5.1266021413715501e+00 1.7633258437228438e+01 18 98 67
203 1 1.2598394018395991e+01 4.5337189117796459e+00 1.8512410128781823e+01 121 -155 37
19 1 1.2545470491500472e+01 7.2126399187158565e+00 2.4262465234891256e+01 28 8 78
226 1 2.3577311685546494e+01 5.1538045190834705e+00 2.4149347948467600e+01 -48 48 28
287 1 2.4400459432242354e+01 1.0073959426615446e+01 1.8719188290140636e+01 -1 -33 -2
265 1 1.8491274778501630e+01 3.2882113272868541e+00 1.5445470878001162e+01 -91 -93 60
320 1 1.6173476426881280e+01 8.6144566241529539e+00 1.6205316013147240e+01 48 13 -42
423 1 2.3880876759976452e+01 2.8037951858317416e+00 2.2947155131052828e+01 -35 47 126
184 1 1.8799091832138998e+01 6.2029069618165495e+00 2.0642693472864540e+01 -31 0 44
466 1 2.2574740038183919e+01 5.2118473311079150e+00 1.6971690722119089e+01 136 -21 -41
436 1 2.4599024855012654e+01 1.0133466359282282e+01 2.4193404771596963e+01 77 119 44
375 1 2.2168818111233069e+01 7.3722580598976417e-01 2.4710214392872889e+01 -17 93 -177
355 1 1.6939996649465758e+01 8.5904628751005099e+00 1.9622461919835477e+01 -21 12 40
322 1 2.4542403559099654e+01 4.6515230718800176e+00 1.5125483313386031e+01 31 132 44
476 1 1.7407608462858988e+01 1.1033083152520723e+01 1.8032025970110229e+01 18 -74 -42
195 1 1.6130209785058376e+01 3.5325754610098046e+00 1.4988398902886569e+01 1 -52 78
252 1 1.6215138968656991e+01 3.9298957126909406e+00 1.9483539579665909e+01 -37 -107 2
488 1 1.8836551087482125e+01 1.2097345351602257e+01 1.5788804025304708e+01 -57 16 -42
315 1 1.3633412731976300e+01 7.8405836852085571e+00 2.0281901477069979e+01 -88 135 170
206 1 1.7407188790474738e+01 9.8322465492683264e+00 2.2127025649592827e+01 -3 -152 31
377 1 2.2113494599288948e+01 3.4863513675939424e+00 2.0996074765740275e+01 60 -30 -100