LAMMPS (4 Jan 2019)
Reading data file ...
  orthogonal box = (0.0201586 0.0201586 0.0201586) to (24.8148 24.8148 24.8148)
  2 by 2 by 2 MPI processor grid
  reading atoms ...
  512 atoms
  reading velocities ...
  512 velocities
Neighbor list info ...
  update every 1 steps, delay 0 steps, check yes
  max neighbors/atom: 2000, page size: 100000
  master list distance cutoff = 6.3065
  ghost atom cutoff = 6.3065
  1 neighbor lists, perpetual/occasional/extra = 1 0 0
  (1) pair sw, perpetual
      attributes: full, newton on
      pair build: full/nsq
      stencil: none
      bin: none
Setting up Verlet run ...
  Unit style    : real
  Current step  : 0
  Time step     : 5
Per MPI rank memory allocation (min/avg/max) = 2.684 | 2.684 | 2.684 Mbytes
---------------- Step        0 ----- CPU =      0.0000 (sec) ----------------
Time     = 0.000000 Temp     = 300.000000 Press    = 656.689987 
PotEng   = -10.087518 KinEng   = 0.892496 Lx       = 24.794683 
Ly       = 24.794683 Lz       = 24.794683 Density  = 1.004812 
---------------- Step     1000 ----- CPU =      0.4596 (sec) ----------------
Time     = 5000.000000 Temp     = 303.122944 Press    = -73.907623 
PotEng   = -10.069383 KinEng   = 0.901787 Lx       = 24.939925 
Ly       = 24.939925 Lz       = 24.939925 Density  = 0.987359 
---------------- Step     2000 ----- CPU =      0.9152 (sec) ----------------
Time     = 10000.000000 Temp     = 295.564285 Press    = 15.752122 
PotEng   = -10.017582 KinEng   = 0.879300 Lx       = 24.770441 
Ly       = 24.770441 Lz       = 24.770441 Density  = 1.007765 
---------------- Step     3000 ----- CPU =      1.3667 (sec) ----------------
Time     = 15000.000000 Temp     = 309.278352 Press    = 92.616602 
PotEng   = -10.109157 KinEng   = 0.920099 Lx       = 24.851486 
Ly       = 24.851486 Lz       = 24.851486 Density  = 0.997938 
---------------- Step     4000 ----- CPU =      1.8191 (sec) ----------------
Time     = 20000.000000 Temp     = 289.337739 Press    = -868.583019 
PotEng   = -10.159720 KinEng   = 0.860776 Lx       = 24.819979 
Ly       = 24.819979 Lz       = 24.819979 Density  = 1.001743 
---------------- Step     5000 ----- CPU =      2.2745 (sec) ----------------
Time     = 25000.000000 Temp     = 289.556399 Press    = 172.431641 
PotEng   = -10.037043 KinEng   = 0.861427 Lx       = 24.840577 
Ly       = 24.840577 Lz       = 24.840577 Density  = 0.999253 
---------------- Step     6000 ----- CPU =      2.7141 (sec) ----------------
Time     = 30000.000000 Temp     = 298.774818 Press    = -166.368294 
PotEng   = -10.067799 KinEng   = 0.888852 Lx       = 24.780540 
Ly       = 24.780540 Lz       = 24.780540 Density  = 1.006533 
---------------- Step     7000 ----- CPU =      3.1784 (sec) ----------------
Time     = 35000.000000 Temp     = 302.469849 Press    = 903.852529 
PotEng   = -10.069170 KinEng   = 0.899844 Lx       = 24.887416 
Ly       = 24.887416 Lz       = 24.887416 Density  = 0.993622 
---------------- Step     8000 ----- CPU =      3.6425 (sec) ----------------
Time     = 40000.000000 Temp     = 282.130802 Press    = 375.674240 
PotEng   = -10.014348 KinEng   = 0.839336 Lx       = 24.784232 
Ly       = 24.784232 Lz       = 24.784232 Density  = 1.006084 
---------------- Step     9000 ----- CPU =      4.0958 (sec) ----------------
Time     = 45000.000000 Temp     = 296.180451 Press    = -399.002326 
PotEng   = -10.163016 KinEng   = 0.881133 Lx       = 24.907014 
Ly       = 24.907014 Lz       = 24.907014 Density  = 0.991278 
---------------- Step    10000 ----- CPU =      4.5418 (sec) ----------------
Time     = 50000.000000 Temp     = 304.437487 Press    = 808.151905 
PotEng   = -10.085402 KinEng   = 0.905698 Lx       = 24.787586 
Ly       = 24.787586 Lz       = 24.787586 Density  = 1.005675 
---------------- Step    11000 ----- CPU =      4.9891 (sec) ----------------
Time     = 55000.000000 Temp     = 299.605546 Press    = 257.692245 
PotEng   = -10.128131 KinEng   = 0.891323 Lx       = 24.911307 
Ly       = 24.911307 Lz       = 24.911307 Density  = 0.990766 
---------------- Step    12000 ----- CPU =      5.4280 (sec) ----------------
Time     = 60000.000000 Temp     = 300.842502 Press    = -1279.569606 
PotEng   = -10.079066 KinEng   = 0.895003 Lx       = 25.024407 
Ly       = 25.024407 Lz       = 25.024407 Density  = 0.977393 
---------------- Step    13000 ----- CPU =      5.8792 (sec) ----------------
Time     = 65000.000000 Temp     = 321.767436 Press    = -149.780443 
PotEng   = -10.090163 KinEng   = 0.957254 Lx       = 24.850851 
Ly       = 24.850851 Lz       = 24.850851 Density  = 0.998014 
---------------- Step    14000 ----- CPU =      6.3252 (sec) ----------------
Time     = 70000.000000 Temp     = 307.893875 Press    = 485.465622 
PotEng   = -10.046985 KinEng   = 0.915981 Lx       = 24.810864 
Ly       = 24.810864 Lz       = 24.810864 Density  = 1.002847 
---------------- Step    15000 ----- CPU =      6.7652 (sec) ----------------
Time     = 75000.000000 Temp     = 298.777966 Press    = 323.551253 
PotEng   = -9.986876 KinEng   = 0.888861 Lx       = 24.858109 
Ly       = 24.858109 Lz       = 24.858109 Density  = 0.997140 
---------------- Step    16000 ----- CPU =      7.2219 (sec) ----------------
Time     = 80000.000000 Temp     = 302.103707 Press    = -491.737717 
PotEng   = -10.017334 KinEng   = 0.898755 Lx       = 24.838188 
Ly       = 24.838188 Lz       = 24.838188 Density  = 0.999541 
---------------- Step    17000 ----- CPU =      7.6738 (sec) ----------------
Time     = 85000.000000 Temp     = 322.136895 Press    = -395.241266 
PotEng   = -10.045474 KinEng   = 0.958353 Lx       = 24.784855 
Ly       = 24.784855 Lz       = 24.784855 Density  = 1.006008 
---------------- Step    18000 ----- CPU =      8.1285 (sec) ----------------
Time     = 90000.000000 Temp     = 285.132750 Press    = -604.059231 
PotEng   = -10.013389 KinEng   = 0.848267 Lx       = 24.940138 
Ly       = 24.940138 Lz       = 24.940138 Density  = 0.987334 
---------------- Step    19000 ----- CPU =      8.5772 (sec) ----------------
Time     = 95000.000000 Temp     = 291.701398 Press    = -300.912871 
PotEng   = -10.095540 KinEng   = 0.867808 Lx       = 24.737136 
Ly       = 24.737136 Lz       = 24.737136 Density  = 1.011841 
---------------- Step    20000 ----- CPU =      9.0346 (sec) ----------------
Time     = 100000.000000 Temp     = 290.636784 Press    = 843.710731 
PotEng   = -10.090246 KinEng   = 0.864641 Lx       = 24.763642 
Ly       = 24.763642 Lz       = 24.763642 Density  = 1.008595 
---------------- Step    21000 ----- CPU =      9.4891 (sec) ----------------
Time     = 105000.000000 Temp     = 294.945424 Press    = 298.884518 
PotEng   = -10.087875 KinEng   = 0.877459 Lx       = 24.763846 
Ly       = 24.763846 Lz       = 24.763846 Density  = 1.008570 
---------------- Step    22000 ----- CPU =      9.9509 (sec) ----------------
Time     = 110000.000000 Temp     = 306.735600 Press    = -549.199412 
PotEng   = -10.056508 KinEng   = 0.912535 Lx       = 24.888073 
Ly       = 24.888073 Lz       = 24.888073 Density  = 0.993543 
---------------- Step    23000 ----- CPU =     10.4060 (sec) ----------------
Time     = 115000.000000 Temp     = 312.442668 Press    = -603.964509 
PotEng   = -10.050140 KinEng   = 0.929513 Lx       = 24.909087 
Ly       = 24.909087 Lz       = 24.909087 Density  = 0.991031 
---------------- Step    24000 ----- CPU =     10.8501 (sec) ----------------
Time     = 120000.000000 Temp     = 293.340616 Press    = -271.870069 
PotEng   = -10.099986 KinEng   = 0.872685 Lx       = 24.859673 
Ly       = 24.859673 Lz       = 24.859673 Density  = 0.996952 
---------------- Step    25000 ----- CPU =     11.2916 (sec) ----------------
Time     = 125000.000000 Temp     = 308.395690 Press    = 804.891799 
PotEng   = -10.089275 KinEng   = 0.917474 Lx       = 24.834532 
Ly       = 24.834532 Lz       = 24.834532 Density  = 0.999983 
---------------- Step    26000 ----- CPU =     11.7425 (sec) ----------------
Time     = 130000.000000 Temp     = 299.692085 Press    = -69.890690 
PotEng   = -10.044906 KinEng   = 0.891580 Lx       = 24.784312 
Ly       = 24.784312 Lz       = 24.784312 Density  = 1.006074 
---------------- Step    27000 ----- CPU =     12.2117 (sec) ----------------
Time     = 135000.000000 Temp     = 319.418493 Press    = -262.596267 
PotEng   = -10.115954 KinEng   = 0.950266 Lx       = 24.866981 
Ly       = 24.866981 Lz       = 24.866981 Density  = 0.996073 
---------------- Step    28000 ----- CPU =     12.6609 (sec) ----------------
Time     = 140000.000000 Temp     = 293.368631 Press    = 229.440974 
PotEng   = -10.154661 KinEng   = 0.872768 Lx       = 24.890993 
Ly       = 24.890993 Lz       = 24.890993 Density  = 0.993193 
---------------- Step    29000 ----- CPU =     13.1024 (sec) ----------------
Time     = 145000.000000 Temp     = 281.052716 Press    = 104.517004 
PotEng   = -10.077446 KinEng   = 0.836129 Lx       = 24.786886 
Ly       = 24.786886 Lz       = 24.786886 Density  = 1.005761 
---------------- Step    30000 ----- CPU =     13.5454 (sec) ----------------
Time     = 150000.000000 Temp     = 294.933538 Press    = -210.273104 
PotEng   = -10.112214 KinEng   = 0.877424 Lx       = 24.851446 
Ly       = 24.851446 Lz       = 24.851446 Density  = 0.997943 
---------------- Step    31000 ----- CPU =     13.9919 (sec) ----------------
Time     = 155000.000000 Temp     = 298.581872 Press    = -87.832743 
PotEng   = -10.067699 KinEng   = 0.888278 Lx       = 24.895764 
Ly       = 24.895764 Lz       = 24.895764 Density  = 0.992623 
---------------- Step    32000 ----- CPU =     14.4427 (sec) ----------------
Time     = 160000.000000 Temp     = 298.732226 Press    = 22.825378 
PotEng   = -10.001208 KinEng   = 0.888725 Lx       = 24.856725 
Ly       = 24.856725 Lz       = 24.856725 Density  = 0.997307 
---------------- Step    33000 ----- CPU =     14.8811 (sec) ----------------
Time     = 165000.000000 Temp     = 280.228574 Press    = 1038.887564 
PotEng   = -10.095231 KinEng   = 0.833677 Lx       = 24.777517 
Ly       = 24.777517 Lz       = 24.777517 Density  = 1.006902 
---------------- Step    34000 ----- CPU =     15.3313 (sec) ----------------
Time     = 170000.000000 Temp     = 304.469316 Press    = -180.641080 
PotEng   = -10.026079 KinEng   = 0.905793 Lx       = 24.928303 
Ly       = 24.928303 Lz       = 24.928303 Density  = 0.988741 
---------------- Step    35000 ----- CPU =     15.7815 (sec) ----------------
Time     = 175000.000000 Temp     = 296.688301 Press    = -142.395254 
PotEng   = -10.161671 KinEng   = 0.882644 Lx       = 24.879478 
Ly       = 24.879478 Lz       = 24.879478 Density  = 0.994573 
---------------- Step    36000 ----- CPU =     16.2358 (sec) ----------------
Time     = 180000.000000 Temp     = 319.610892 Press    = 720.416534 
PotEng   = -10.049542 KinEng   = 0.950839 Lx       = 24.830815 
Ly       = 24.830815 Lz       = 24.830815 Density  = 1.000432 
---------------- Step    37000 ----- CPU =     16.6811 (sec) ----------------
Time     = 185000.000000 Temp     = 297.329586 Press    = -320.269332 
PotEng   = -10.047612 KinEng   = 0.884552 Lx       = 24.878391 
Ly       = 24.878391 Lz       = 24.878391 Density  = 0.994704 
---------------- Step    38000 ----- CPU =     17.1296 (sec) ----------------
Time     = 190000.000000 Temp     = 292.581273 Press    = 276.417290 
PotEng   = -10.079366 KinEng   = 0.870426 Lx       = 24.833144 
Ly       = 24.833144 Lz       = 24.833144 Density  = 1.000151 
---------------- Step    39000 ----- CPU =     17.5801 (sec) ----------------
Time     = 195000.000000 Temp     = 285.769093 Press    = -385.253158 
PotEng   = -10.073782 KinEng   = 0.850160 Lx       = 24.901845 
Ly       = 24.901845 Lz       = 24.901845 Density  = 0.991896 
---------------- Step    40000 ----- CPU =     18.0281 (sec) ----------------
Time     = 200000.000000 Temp     = 315.802366 Press    = -391.754036 
PotEng   = -10.046561 KinEng   = 0.939508 Lx       = 24.844048 
Ly       = 24.844048 Lz       = 24.844048 Density  = 0.998834 
---------------- Step    41000 ----- CPU =     18.4772 (sec) ----------------
Time     = 205000.000000 Temp     = 321.227037 Press    = -616.433570 
PotEng   = -10.059022 KinEng   = 0.955647 Lx       = 24.975635 
Ly       = 24.975635 Lz       = 24.975635 Density  = 0.983130 
---------------- Step    42000 ----- CPU =     18.9305 (sec) ----------------
Time     = 210000.000000 Temp     = 294.026948 Press    = 232.444906 
PotEng   = -10.099020 KinEng   = 0.874727 Lx       = 24.869665 
Ly       = 24.869665 Lz       = 24.869665 Density  = 0.995751 
---------------- Step    43000 ----- CPU =     19.3797 (sec) ----------------
Time     = 215000.000000 Temp     = 312.939392 Press    = 391.681276 
PotEng   = -10.050829 KinEng   = 0.930991 Lx       = 24.842286 
Ly       = 24.842286 Lz       = 24.842286 Density  = 0.999047 
---------------- Step    44000 ----- CPU =     19.8287 (sec) ----------------
Time     = 220000.000000 Temp     = 307.238802 Press    = -190.694808 
PotEng   = -10.097684 KinEng   = 0.914032 Lx       = 24.821950 
Ly       = 24.821950 Lz       = 24.821950 Density  = 1.001504 
---------------- Step    45000 ----- CPU =     20.2850 (sec) ----------------
Time     = 225000.000000 Temp     = 287.817513 Press    = -853.053774 
PotEng   = -10.094444 KinEng   = 0.856254 Lx       = 24.862034 
Ly       = 24.862034 Lz       = 24.862034 Density  = 0.996668 
---------------- Step    46000 ----- CPU =     20.7491 (sec) ----------------
Time     = 230000.000000 Temp     = 284.615899 Press    = 167.854123 
PotEng   = -10.067813 KinEng   = 0.846729 Lx       = 24.798531 
Ly       = 24.798531 Lz       = 24.798531 Density  = 1.004344 
---------------- Step    47000 ----- CPU =     21.2114 (sec) ----------------
Time     = 235000.000000 Temp     = 304.776376 Press    = -332.397044 
PotEng   = -10.060935 KinEng   = 0.906706 Lx       = 24.812575 
Ly       = 24.812575 Lz       = 24.812575 Density  = 1.002640 
---------------- Step    48000 ----- CPU =     21.6585 (sec) ----------------
Time     = 240000.000000 Temp     = 305.242844 Press    = 844.513143 
PotEng   = -9.988491 KinEng   = 0.908094 Lx       = 24.824868 
Ly       = 24.824868 Lz       = 24.824868 Density  = 1.001151 
---------------- Step    49000 ----- CPU =     22.1070 (sec) ----------------
Time     = 245000.000000 Temp     = 300.219181 Press    = -207.602063 
PotEng   = -10.061845 KinEng   = 0.893149 Lx       = 24.806057 
Ly       = 24.806057 Lz       = 24.806057 Density  = 1.003431 
---------------- Step    50000 ----- CPU =     22.5518 (sec) ----------------
Time     = 250000.000000 Temp     = 292.786948 Press    = -472.201013 
PotEng   = -10.118183 KinEng   = 0.871038 Lx       = 24.855148 
Ly       = 24.855148 Lz       = 24.855148 Density  = 0.997497 
---------------- Step    51000 ----- CPU =     22.9871 (sec) ----------------
Time     = 255000.000000 Temp     = 300.577785 Press    = 903.689945 
PotEng   = -10.079233 KinEng   = 0.894215 Lx       = 24.824275 
Ly       = 24.824275 Lz       = 24.824275 Density  = 1.001223 
---------------- Step    52000 ----- CPU =     23.4139 (sec) ----------------
Time     = 260000.000000 Temp     = 292.647187 Press    = -764.258180 
PotEng   = -10.215067 KinEng   = 0.870622 Lx       = 24.837887 
Ly       = 24.837887 Lz       = 24.837887 Density  = 0.999578 
---------------- Step    53000 ----- CPU =     23.8547 (sec) ----------------
Time     = 265000.000000 Temp     = 300.174754 Press    = 117.854780 
PotEng   = -10.043158 KinEng   = 0.893016 Lx       = 24.925996 
Ly       = 24.925996 Lz       = 24.925996 Density  = 0.989015 
---------------- Step    54000 ----- CPU =     24.2935 (sec) ----------------
Time     = 270000.000000 Temp     = 281.543958 Press    = -1837.295426 
PotEng   = -10.056290 KinEng   = 0.837590 Lx       = 24.970111 
Ly       = 24.970111 Lz       = 24.970111 Density  = 0.983782 
---------------- Step    55000 ----- CPU =     24.7440 (sec) ----------------
Time     = 275000.000000 Temp     = 303.765958 Press    = -877.174324 
PotEng   = -10.054480 KinEng   = 0.903700 Lx       = 24.863029 
Ly       = 24.863029 Lz       = 24.863029 Density  = 0.996548 
---------------- Step    56000 ----- CPU =     25.1980 (sec) ----------------
Time     = 280000.000000 Temp     = 306.652539 Press    = 18.477425 
PotEng   = -10.088993 KinEng   = 0.912288 Lx       = 24.971473 
Ly       = 24.971473 Lz       = 24.971473 Density  = 0.983622 
---------------- Step    57000 ----- CPU =     25.6429 (sec) ----------------
Time     = 285000.000000 Temp     = 304.266094 Press    = -968.784617 
PotEng   = -10.044675 KinEng   = 0.905188 Lx       = 24.968210 
Ly       = 24.968210 Lz       = 24.968210 Density  = 0.984007 
---------------- Step    58000 ----- CPU =     26.0884 (sec) ----------------
Time     = 290000.000000 Temp     = 296.890463 Press    = 90.745307 
PotEng   = -10.126280 KinEng   = 0.883246 Lx       = 24.771057 
Ly       = 24.771057 Lz       = 24.771057 Density  = 1.007690 
---------------- Step    59000 ----- CPU =     26.5277 (sec) ----------------
Time     = 295000.000000 Temp     = 306.524006 Press    = -763.590644 
PotEng   = -10.022880 KinEng   = 0.911905 Lx       = 24.977876 
Ly       = 24.977876 Lz       = 24.977876 Density  = 0.982865 
---------------- Step    60000 ----- CPU =     26.9694 (sec) ----------------
Time     = 300000.000000 Temp     = 292.617933 Press    = -614.755294 
PotEng   = -10.017889 KinEng   = 0.870535 Lx       = 24.894826 
Ly       = 24.894826 Lz       = 24.894826 Density  = 0.992735 
---------------- Step    61000 ----- CPU =     27.4068 (sec) ----------------
Time     = 305000.000000 Temp     = 307.136009 Press    = 476.766028 
PotEng   = -10.056243 KinEng   = 0.913726 Lx       = 24.845186 
Ly       = 24.845186 Lz       = 24.845186 Density  = 0.998697 
---------------- Step    62000 ----- CPU =     27.8592 (sec) ----------------
Time     = 310000.000000 Temp     = 300.827084 Press    = 928.429101 
PotEng   = -10.085402 KinEng   = 0.894957 Lx       = 24.739397 
Ly       = 24.739397 Lz       = 24.739397 Density  = 1.011564 
---------------- Step    63000 ----- CPU =     28.3206 (sec) ----------------
Time     = 315000.000000 Temp     = 300.899892 Press    = -150.065646 
PotEng   = -10.097171 KinEng   = 0.895174 Lx       = 24.817982 
Ly       = 24.817982 Lz       = 24.817982 Density  = 1.001985 
---------------- Step    64000 ----- CPU =     28.7803 (sec) ----------------
Time     = 320000.000000 Temp     = 309.146435 Press    = 1067.937853 
PotEng   = -10.021638 KinEng   = 0.919707 Lx       = 24.820874 
Ly       = 24.820874 Lz       = 24.820874 Density  = 1.001635 
---------------- Step    65000 ----- CPU =     29.2366 (sec) ----------------
Time     = 325000.000000 Temp     = 326.665270 Press    = 303.411373 
PotEng   = -10.088440 KinEng   = 0.971825 Lx       = 24.808553 
Ly       = 24.808553 Lz       = 24.808553 Density  = 1.003128 
---------------- Step    66000 ----- CPU =     29.7003 (sec) ----------------
Time     = 330000.000000 Temp     = 290.416638 Press    = 619.378217 
PotEng   = -9.993741 KinEng   = 0.863986 Lx       = 24.899534 
Ly       = 24.899534 Lz       = 24.899534 Density  = 0.992172 
---------------- Step    67000 ----- CPU =     30.1469 (sec) ----------------
Time     = 335000.000000 Temp     = 287.923136 Press    = -551.853062 
PotEng   = -10.090574 KinEng   = 0.856568 Lx       = 24.823749 
Ly       = 24.823749 Lz       = 24.823749 Density  = 1.001287 
---------------- Step    68000 ----- CPU =     30.5994 (sec) ----------------
Time     = 340000.000000 Temp     = 285.715795 Press    = -697.918148 
PotEng   = -10.088685 KinEng   = 0.850001 Lx       = 24.891336 
Ly       = 24.891336 Lz       = 24.891336 Density  = 0.993152 
---------------- Step    69000 ----- CPU =     31.0642 (sec) ----------------
Time     = 345000.000000 Temp     = 282.020288 Press    = 327.328412 
PotEng   = -10.023684 KinEng   = 0.839007 Lx       = 24.893966 
Ly       = 24.893966 Lz       = 24.893966 Density  = 0.992838 
---------------- Step    70000 ----- CPU =     31.5261 (sec) ----------------
Time     = 350000.000000 Temp     = 308.732076 Press    = -137.240030 
PotEng   = -10.094949 KinEng   = 0.918474 Lx       = 24.735332 
Ly       = 24.735332 Lz       = 24.735332 Density  = 1.012062 
---------------- Step    71000 ----- CPU =     31.9755 (sec) ----------------
Time     = 355000.000000 Temp     = 308.406576 Press    = -993.267792 
PotEng   = -10.022993 KinEng   = 0.917506 Lx       = 24.889266 
Ly       = 24.889266 Lz       = 24.889266 Density  = 0.993400 
---------------- Step    72000 ----- CPU =     32.4208 (sec) ----------------
Time     = 360000.000000 Temp     = 302.127995 Press    = 217.117679 
PotEng   = -10.035927 KinEng   = 0.898827 Lx       = 24.903449 
Ly       = 24.903449 Lz       = 24.903449 Density  = 0.991704 
---------------- Step    73000 ----- CPU =     32.8695 (sec) ----------------
Time     = 365000.000000 Temp     = 296.887483 Press    = 97.358164 
PotEng   = -10.044164 KinEng   = 0.883237 Lx       = 24.766862 
Ly       = 24.766862 Lz       = 24.766862 Density  = 1.008202 
---------------- Step    74000 ----- CPU =     33.3176 (sec) ----------------
Time     = 370000.000000 Temp     = 291.251302 Press    = -89.209734 
PotEng   = -10.074379 KinEng   = 0.866469 Lx       = 24.775679 
Ly       = 24.775679 Lz       = 24.775679 Density  = 1.007126 
---------------- Step    75000 ----- CPU =     33.7666 (sec) ----------------
Time     = 375000.000000 Temp     = 309.385286 Press    = -755.700632 
PotEng   = -10.083633 KinEng   = 0.920418 Lx       = 24.975930 
Ly       = 24.975930 Lz       = 24.975930 Density  = 0.983095 
---------------- Step    76000 ----- CPU =     34.2002 (sec) ----------------
Time     = 380000.000000 Temp     = 289.045285 Press    = -704.362683 
PotEng   = -10.084991 KinEng   = 0.859906 Lx       = 24.977138 
Ly       = 24.977138 Lz       = 24.977138 Density  = 0.982952 
---------------- Step    77000 ----- CPU =     34.6320 (sec) ----------------
Time     = 385000.000000 Temp     = 312.401576 Press    = 1055.253165 
PotEng   = -10.071875 KinEng   = 0.929391 Lx       = 24.864363 
Ly       = 24.864363 Lz       = 24.864363 Density  = 0.996388 
---------------- Step    78000 ----- CPU =     35.0603 (sec) ----------------
Time     = 390000.000000 Temp     = 302.260440 Press    = 81.895002 
PotEng   = -10.091779 KinEng   = 0.899221 Lx       = 24.859527 
Ly       = 24.859527 Lz       = 24.859527 Density  = 0.996970 
---------------- Step    79000 ----- CPU =     35.5009 (sec) ----------------
Time     = 395000.000000 Temp     = 291.904872 Press    = 105.761306 
PotEng   = -10.117273 KinEng   = 0.868414 Lx       = 24.855154 
Ly       = 24.855154 Lz       = 24.855154 Density  = 0.997496 
---------------- Step    80000 ----- CPU =     35.9503 (sec) ----------------
Time     = 400000.000000 Temp     = 292.484463 Press    = 701.403059 
PotEng   = -10.041560 KinEng   = 0.870138 Lx       = 24.831225 
Ly       = 24.831225 Lz       = 24.831225 Density  = 1.000382 
---------------- Step    81000 ----- CPU =     36.3836 (sec) ----------------
Time     = 405000.000000 Temp     = 295.436496 Press    = -218.310790 
PotEng   = -9.992550 KinEng   = 0.878920 Lx       = 24.932000 
Ly       = 24.932000 Lz       = 24.932000 Density  = 0.988301 
---------------- Step    82000 ----- CPU =     36.8153 (sec) ----------------
Time     = 410000.000000 Temp     = 282.034471 Press    = 638.491848 
PotEng   = -10.035472 KinEng   = 0.839049 Lx       = 24.785998 
Ly       = 24.785998 Lz       = 24.785998 Density  = 1.005869 
---------------- Step    83000 ----- CPU =     37.2675 (sec) ----------------
Time     = 415000.000000 Temp     = 302.287615 Press    = 930.829433 
PotEng   = -10.112249 KinEng   = 0.899302 Lx       = 24.754384 
Ly       = 24.754384 Lz       = 24.754384 Density  = 1.009727 
---------------- Step    84000 ----- CPU =     37.7043 (sec) ----------------
Time     = 420000.000000 Temp     = 297.084532 Press    = 628.596274 
PotEng   = -9.983923 KinEng   = 0.883823 Lx       = 24.785501 
Ly       = 24.785501 Lz       = 24.785501 Density  = 1.005929 
---------------- Step    85000 ----- CPU =     38.1693 (sec) ----------------
Time     = 425000.000000 Temp     = 317.277492 Press    = 1703.666200 
PotEng   = -10.105589 KinEng   = 0.943897 Lx       = 24.778083 
Ly       = 24.778083 Lz       = 24.778083 Density  = 1.006833 
---------------- Step    86000 ----- CPU =     38.6086 (sec) ----------------
Time     = 430000.000000 Temp     = 317.209350 Press    = 209.025333 
PotEng   = -10.090895 KinEng   = 0.943694 Lx       = 24.814111 
Ly       = 24.814111 Lz       = 24.814111 Density  = 1.002454 
---------------- Step    87000 ----- CPU =     39.0413 (sec) ----------------
Time     = 435000.000000 Temp     = 311.449872 Press    = -818.765964 
PotEng   = -10.066447 KinEng   = 0.926560 Lx       = 24.880423 
Ly       = 24.880423 Lz       = 24.880423 Density  = 0.994460 
---------------- Step    88000 ----- CPU =     39.4848 (sec) ----------------
Time     = 440000.000000 Temp     = 293.950082 Press    = -577.203791 
PotEng   = -10.054528 KinEng   = 0.874498 Lx       = 24.862490 
Ly       = 24.862490 Lz       = 24.862490 Density  = 0.996613 
---------------- Step    89000 ----- CPU =     39.9275 (sec) ----------------
Time     = 445000.000000 Temp     = 301.127649 Press    = 242.214482 
PotEng   = -10.070274 KinEng   = 0.895851 Lx       = 24.852386 
Ly       = 24.852386 Lz       = 24.852386 Density  = 0.997829 
---------------- Step    90000 ----- CPU =     40.3702 (sec) ----------------
Time     = 450000.000000 Temp     = 312.053339 Press    = -192.705353 
PotEng   = -10.045631 KinEng   = 0.928355 Lx       = 24.762915 
Ly       = 24.762915 Lz       = 24.762915 Density  = 1.008684 
---------------- Step    91000 ----- CPU =     40.8211 (sec) ----------------
Time     = 455000.000000 Temp     = 306.288507 Press    = -860.881309 
PotEng   = -10.103738 KinEng   = 0.911205 Lx       = 24.837814 
Ly       = 24.837814 Lz       = 24.837814 Density  = 0.999587 
---------------- Step    92000 ----- CPU =     41.2710 (sec) ----------------
Time     = 460000.000000 Temp     = 301.712268 Press    = -634.544121 
PotEng   = -10.054795 KinEng   = 0.897590 Lx       = 24.810151 
Ly       = 24.810151 Lz       = 24.810151 Density  = 1.002934 
---------------- Step    93000 ----- CPU =     41.7113 (sec) ----------------
Time     = 465000.000000 Temp     = 306.111973 Press    = -603.255325 
PotEng   = -10.099202 KinEng   = 0.910679 Lx       = 24.880469 
Ly       = 24.880469 Lz       = 24.880469 Density  = 0.994454 
---------------- Step    94000 ----- CPU =     42.1553 (sec) ----------------
Time     = 470000.000000 Temp     = 299.127289 Press    = -439.405121 
PotEng   = -10.061854 KinEng   = 0.889900 Lx       = 24.847208 
Ly       = 24.847208 Lz       = 24.847208 Density  = 0.998453 
---------------- Step    95000 ----- CPU =     42.6018 (sec) ----------------
Time     = 475000.000000 Temp     = 289.316370 Press    = -1049.750969 
PotEng   = -10.066512 KinEng   = 0.860713 Lx       = 24.917932 
Ly       = 24.917932 Lz       = 24.917932 Density  = 0.989976 
---------------- Step    96000 ----- CPU =     43.0456 (sec) ----------------
Time     = 480000.000000 Temp     = 312.632690 Press    = -875.868689 
PotEng   = -10.096619 KinEng   = 0.930079 Lx       = 24.913119 
Ly       = 24.913119 Lz       = 24.913119 Density  = 0.990550 
---------------- Step    97000 ----- CPU =     43.4830 (sec) ----------------
Time     = 485000.000000 Temp     = 290.131342 Press    = -692.227447 
PotEng   = -9.987455 KinEng   = 0.863137 Lx       = 24.948302 
Ly       = 24.948302 Lz       = 24.948302 Density  = 0.986365 
---------------- Step    98000 ----- CPU =     43.9158 (sec) ----------------
Time     = 490000.000000 Temp     = 312.145393 Press    = 551.281225 
PotEng   = -10.114155 KinEng   = 0.928629 Lx       = 24.840016 
Ly       = 24.840016 Lz       = 24.840016 Density  = 0.999321 
---------------- Step    99000 ----- CPU =     44.3581 (sec) ----------------
Time     = 495000.000000 Temp     = 298.805220 Press    = -405.923094 
PotEng   = -10.116277 KinEng   = 0.888942 Lx       = 24.929881 
Ly       = 24.929881 Lz       = 24.929881 Density  = 0.988553 
---------------- Step   100000 ----- CPU =     44.8026 (sec) ----------------
Time     = 500000.000000 Temp     = 305.830866 Press    = -717.044676 
PotEng   = -10.117855 KinEng   = 0.909843 Lx       = 24.905256 
Ly       = 24.905256 Lz       = 24.905256 Density  = 0.991488 
---------------- Step   101000 ----- CPU =     45.2449 (sec) ----------------
Time     = 505000.000000 Temp     = 300.016563 Press    = 315.963641 
PotEng   = -10.028017 KinEng   = 0.892546 Lx       = 24.835327 
Ly       = 24.835327 Lz       = 24.835327 Density  = 0.999887 
---------------- Step   102000 ----- CPU =     45.6878 (sec) ----------------
Time     = 510000.000000 Temp     = 299.816031 Press    = -65.914258 
PotEng   = -10.028839 KinEng   = 0.891949 Lx       = 24.831628 
Ly       = 24.831628 Lz       = 24.831628 Density  = 1.000334 
---------------- Step   103000 ----- CPU =     46.1214 (sec) ----------------
Time     = 515000.000000 Temp     = 290.572585 Press    = -167.751088 
PotEng   = -10.042122 KinEng   = 0.864450 Lx       = 24.791503 
Ly       = 24.791503 Lz       = 24.791503 Density  = 1.005199 
---------------- Step   104000 ----- CPU =     46.5590 (sec) ----------------
Time     = 520000.000000 Temp     = 273.936551 Press    = -1114.208306 
PotEng   = -10.058366 KinEng   = 0.814958 Lx       = 25.011601 
Ly       = 25.011601 Lz       = 25.011601 Density  = 0.978895 
---------------- Step   105000 ----- CPU =     46.9989 (sec) ----------------
Time     = 525000.000000 Temp     = 286.816853 Press    = -134.424848 
PotEng   = -10.074496 KinEng   = 0.853277 Lx       = 24.909766 
Ly       = 24.909766 Lz       = 24.909766 Density  = 0.990950 
---------------- Step   106000 ----- CPU =     47.4411 (sec) ----------------
Time     = 530000.000000 Temp     = 313.568133 Press    = -150.718087 
PotEng   = -10.044889 KinEng   = 0.932861 Lx       = 24.874279 
Ly       = 24.874279 Lz       = 24.874279 Density  = 0.995197 
---------------- Step   107000 ----- CPU =     47.8875 (sec) ----------------
Time     = 535000.000000 Temp     = 286.819705 Press    = -33.008393 
PotEng   = -10.030386 KinEng   = 0.853285 Lx       = 24.832450 
Ly       = 24.832450 Lz       = 24.832450 Density  = 1.000234 
---------------- Step   108000 ----- CPU =     48.3336 (sec) ----------------
Time     = 540000.000000 Temp     = 303.500059 Press    = 986.820068 
PotEng   = -10.049902 KinEng   = 0.902909 Lx       = 24.788140 
Ly       = 24.788140 Lz       = 24.788140 Density  = 1.005608 
---------------- Step   109000 ----- CPU =     48.7879 (sec) ----------------
Time     = 545000.000000 Temp     = 315.218970 Press    = -149.884019 
PotEng   = -10.085795 KinEng   = 0.937773 Lx       = 24.871607 
Ly       = 24.871607 Lz       = 24.871607 Density  = 0.995518 
---------------- Step   110000 ----- CPU =     49.2313 (sec) ----------------
Time     = 550000.000000 Temp     = 284.526473 Press    = 869.306256 
PotEng   = -10.123136 KinEng   = 0.846463 Lx       = 24.740256 
Ly       = 24.740256 Lz       = 24.740256 Density  = 1.011458 
---------------- Step   111000 ----- CPU =     49.6800 (sec) ----------------
Time     = 555000.000000 Temp     = 301.587197 Press    = -1613.530845 
PotEng   = -10.122713 KinEng   = 0.897218 Lx       = 24.783316 
Ly       = 24.783316 Lz       = 24.783316 Density  = 1.006195 
---------------- Step   112000 ----- CPU =     50.1212 (sec) ----------------
Time     = 560000.000000 Temp     = 294.559386 Press    = -975.103947 
PotEng   = -10.001405 KinEng   = 0.876311 Lx       = 24.984412 
Ly       = 24.984412 Lz       = 24.984412 Density  = 0.982094 
---------------- Step   113000 ----- CPU =     50.5529 (sec) ----------------
Time     = 565000.000000 Temp     = 297.186876 Press    = 924.172803 
PotEng   = -10.019647 KinEng   = 0.884127 Lx       = 24.798991 
Ly       = 24.798991 Lz       = 24.798991 Density  = 1.004288 
---------------- Step   114000 ----- CPU =     50.9982 (sec) ----------------
Time     = 570000.000000 Temp     = 288.445787 Press    = 540.584569 
PotEng   = -10.054357 KinEng   = 0.858123 Lx       = 24.909058 
Ly       = 24.909058 Lz       = 24.909058 Density  = 0.991034 
---------------- Step   115000 ----- CPU =     51.4336 (sec) ----------------
Time     = 575000.000000 Temp     = 324.592687 Press    = 859.156749 
PotEng   = -10.106202 KinEng   = 0.965659 Lx       = 24.779926 
Ly       = 24.779926 Lz       = 24.779926 Density  = 1.006608 
---------------- Step   116000 ----- CPU =     51.8784 (sec) ----------------
Time     = 580000.000000 Temp     = 299.426675 Press    = -919.533733 
PotEng   = -10.140527 KinEng   = 0.890791 Lx       = 24.831974 
Ly       = 24.831974 Lz       = 24.831974 Density  = 1.000292 
---------------- Step   117000 ----- CPU =     52.3247 (sec) ----------------
Time     = 585000.000000 Temp     = 270.756615 Press    = 311.170162 
PotEng   = -10.075877 KinEng   = 0.805498 Lx       = 24.754185 
Ly       = 24.754185 Lz       = 24.754185 Density  = 1.009752 
---------------- Step   118000 ----- CPU =     52.7661 (sec) ----------------
Time     = 590000.000000 Temp     = 311.666113 Press    = 654.203578 
PotEng   = -10.090658 KinEng   = 0.927203 Lx       = 24.896156 
Ly       = 24.896156 Lz       = 24.896156 Density  = 0.992576 
---------------- Step   119000 ----- CPU =     53.2014 (sec) ----------------
Time     = 595000.000000 Temp     = 297.496452 Press    = 940.845250 
PotEng   = -10.088365 KinEng   = 0.885048 Lx       = 24.829034 
Ly       = 24.829034 Lz       = 24.829034 Density  = 1.000647 
---------------- Step   120000 ----- CPU =     53.6412 (sec) ----------------
Time     = 600000.000000 Temp     = 308.577691 Press    = 57.161356 
PotEng   = -10.030006 KinEng   = 0.918015 Lx       = 24.922842 
Ly       = 24.922842 Lz       = 24.922842 Density  = 0.989391 
---------------- Step   121000 ----- CPU =     54.1002 (sec) ----------------
Time     = 605000.000000 Temp     = 306.241413 Press    = -777.388527 
PotEng   = -10.035688 KinEng   = 0.911065 Lx       = 24.851177 
Ly       = 24.851177 Lz       = 24.851177 Density  = 0.997975 
---------------- Step   122000 ----- CPU =     54.5482 (sec) ----------------
Time     = 610000.000000 Temp     = 314.303456 Press    = -497.759329 
PotEng   = -10.063463 KinEng   = 0.935049 Lx       = 24.883491 
Ly       = 24.883491 Lz       = 24.883491 Density  = 0.994092 
---------------- Step   123000 ----- CPU =     54.9926 (sec) ----------------
Time     = 615000.000000 Temp     = 327.589557 Press    = 1737.823142 
PotEng   = -10.112427 KinEng   = 0.974575 Lx       = 24.813067 
Ly       = 24.813067 Lz       = 24.813067 Density  = 1.002580 
---------------- Step   124000 ----- CPU =     55.4365 (sec) ----------------
Time     = 620000.000000 Temp     = 303.676351 Press    = -434.203514 
PotEng   = -10.097160 KinEng   = 0.903434 Lx       = 24.902231 
Ly       = 24.902231 Lz       = 24.902231 Density  = 0.991849 
---------------- Step   125000 ----- CPU =     55.8792 (sec) ----------------
Time     = 625000.000000 Temp     = 315.438594 Press    = -262.571777 
PotEng   = -10.104578 KinEng   = 0.938426 Lx       = 24.886598 
Ly       = 24.886598 Lz       = 24.886598 Density  = 0.993720 
---------------- Step   126000 ----- CPU =     56.3244 (sec) ----------------
Time     = 630000.000000 Temp     = 303.311606 Press    = -185.233651 
PotEng   = -10.061288 KinEng   = 0.902348 Lx       = 24.845234 
Ly       = 24.845234 Lz       = 24.845234 Density  = 0.998691 
---------------- Step   127000 ----- CPU =     56.7718 (sec) ----------------
Time     = 635000.000000 Temp     = 324.962186 Press    = 276.151576 
PotEng   = -9.988791 KinEng   = 0.966759 Lx       = 24.859445 
Ly       = 24.859445 Lz       = 24.859445 Density  = 0.996980 
---------------- Step   128000 ----- CPU =     57.2266 (sec) ----------------
Time     = 640000.000000 Temp     = 307.934466 Press    = 391.867199 
PotEng   = -10.081524 KinEng   = 0.916101 Lx       = 24.893843 
Ly       = 24.893843 Lz       = 24.893843 Density  = 0.992852 
---------------- Step   129000 ----- CPU =     57.6683 (sec) ----------------
Time     = 645000.000000 Temp     = 292.741840 Press    = -1355.481955 
PotEng   = -10.169457 KinEng   = 0.870904 Lx       = 24.855949 
Ly       = 24.855949 Lz       = 24.855949 Density  = 0.997400 
---------------- Step   130000 ----- CPU =     58.1018 (sec) ----------------
Time     = 650000.000000 Temp     = 293.618021 Press    = -1100.390456 
PotEng   = -10.099782 KinEng   = 0.873510 Lx       = 25.005749 
Ly       = 25.005749 Lz       = 25.005749 Density  = 0.979582 
---------------- Step   131000 ----- CPU =     58.5352 (sec) ----------------
Time     = 655000.000000 Temp     = 308.613733 Press    = -533.000704 
PotEng   = -10.073465 KinEng   = 0.918122 Lx       = 24.898639 
Ly       = 24.898639 Lz       = 24.898639 Density  = 0.992279 
---------------- Step   132000 ----- CPU =     58.9769 (sec) ----------------
Time     = 660000.000000 Temp     = 310.301081 Press    = -814.497738 
PotEng   = -10.134616 KinEng   = 0.923142 Lx       = 24.952413 
Ly       = 24.952413 Lz       = 24.952413 Density  = 0.985877 
---------------- Step   133000 ----- CPU =     59.4151 (sec) ----------------
Time     = 665000.000000 Temp     = 297.144611 Press    = -975.154457 
PotEng   = -10.116281 KinEng   = 0.884002 Lx       = 24.874133 
Ly       = 24.874133 Lz       = 24.874133 Density  = 0.995214 
---------------- Step   134000 ----- CPU =     59.8706 (sec) ----------------
Time     = 670000.000000 Temp     = 310.583993 Press    = -230.323098 
PotEng   = -10.096369 KinEng   = 0.923984 Lx       = 24.845266 
Ly       = 24.845266 Lz       = 24.845266 Density  = 0.998687 
---------------- Step   135000 ----- CPU =     60.3092 (sec) ----------------
Time     = 675000.000000 Temp     = 321.465841 Press    = 335.917464 
PotEng   = -10.064617 KinEng   = 0.956357 Lx       = 24.824002 
Ly       = 24.824002 Lz       = 24.824002 Density  = 1.001256 
---------------- Step   136000 ----- CPU =     60.7533 (sec) ----------------
Time     = 680000.000000 Temp     = 281.591114 Press    = -189.652720 
PotEng   = -9.992115 KinEng   = 0.837730 Lx       = 24.924691 
Ly       = 24.924691 Lz       = 24.924691 Density  = 0.989171 
---------------- Step   137000 ----- CPU =     61.1921 (sec) ----------------
Time     = 685000.000000 Temp     = 320.503697 Press    = 107.357904 
PotEng   = -10.084619 KinEng   = 0.953495 Lx       = 24.896167 
Ly       = 24.896167 Lz       = 24.896167 Density  = 0.992574 
---------------- Step   138000 ----- CPU =     61.6376 (sec) ----------------
Time     = 690000.000000 Temp     = 292.259707 Press    = -316.502440 
PotEng   = -10.049463 KinEng   = 0.869469 Lx       = 24.895139 
Ly       = 24.895139 Lz       = 24.895139 Density  = 0.992697 
---------------- Step   139000 ----- CPU =     62.0748 (sec) ----------------
Time     = 695000.000000 Temp     = 313.003501 Press    = -1142.580350 
PotEng   = -9.941882 KinEng   = 0.931182 Lx       = 24.992553 
Ly       = 24.992553 Lz       = 24.992553 Density  = 0.981135 
---------------- Step   140000 ----- CPU =     62.5134 (sec) ----------------
Time     = 700000.000000 Temp     = 300.266891 Press    = 233.477150 
PotEng   = -10.170498 KinEng   = 0.893290 Lx       = 24.826884 
Ly       = 24.826884 Lz       = 24.826884 Density  = 1.000907 
---------------- Step   141000 ----- CPU =     62.9569 (sec) ----------------
Time     = 705000.000000 Temp     = 296.505897 Press    = 814.077124 
PotEng   = -10.064205 KinEng   = 0.882102 Lx       = 24.851155 
Ly       = 24.851155 Lz       = 24.851155 Density  = 0.997978 
---------------- Step   142000 ----- CPU =     63.3928 (sec) ----------------
Time     = 710000.000000 Temp     = 292.381124 Press    = 232.765393 
PotEng   = -10.134372 KinEng   = 0.869830 Lx       = 24.840522 
Ly       = 24.840522 Lz       = 24.840522 Density  = 0.999260 
---------------- Step   143000 ----- CPU =     63.8281 (sec) ----------------
Time     = 715000.000000 Temp     = 305.745070 Press    = -617.649395 
PotEng   = -10.091034 KinEng   = 0.909588 Lx       = 24.806130 
Ly       = 24.806130 Lz       = 24.806130 Density  = 1.003422 
---------------- Step   144000 ----- CPU =     64.2717 (sec) ----------------
Time     = 720000.000000 Temp     = 284.715613 Press    = -387.801567 
PotEng   = -10.077226 KinEng   = 0.847026 Lx       = 24.841240 
Ly       = 24.841240 Lz       = 24.841240 Density  = 0.999173 
---------------- Step   145000 ----- CPU =     64.7112 (sec) ----------------
Time     = 725000.000000 Temp     = 318.760880 Press    = 79.510445 
PotEng   = -10.002425 KinEng   = 0.948310 Lx       = 24.927443 
Ly       = 24.927443 Lz       = 24.927443 Density  = 0.988843 
---------------- Step   146000 ----- CPU =     65.1551 (sec) ----------------
Time     = 730000.000000 Temp     = 271.243278 Press    = -279.220961 
PotEng   = -10.031013 KinEng   = 0.806946 Lx       = 24.908238 
Ly       = 24.908238 Lz       = 24.908238 Density  = 0.991132 
---------------- Step   147000 ----- CPU =     65.6048 (sec) ----------------
Time     = 735000.000000 Temp     = 287.885850 Press    = 628.998169 
PotEng   = -10.055832 KinEng   = 0.856457 Lx       = 24.783985 
Ly       = 24.783985 Lz       = 24.783985 Density  = 1.006114 
---------------- Step   148000 ----- CPU =     66.0506 (sec) ----------------
Time     = 740000.000000 Temp     = 289.338235 Press    = 329.869068 
PotEng   = -9.965705 KinEng   = 0.860778 Lx       = 24.898416 
Ly       = 24.898416 Lz       = 24.898416 Density  = 0.992305 
---------------- Step   149000 ----- CPU =     66.4908 (sec) ----------------
Time     = 745000.000000 Temp     = 293.858113 Press    = 12.447889 
PotEng   = -10.069882 KinEng   = 0.874224 Lx       = 24.811630 
Ly       = 24.811630 Lz       = 24.811630 Density  = 1.002754 
---------------- Step   150000 ----- CPU =     66.9355 (sec) ----------------
Time     = 750000.000000 Temp     = 294.566986 Press    = 393.472816 
PotEng   = -9.974481 KinEng   = 0.876333 Lx       = 24.852501 
Ly       = 24.852501 Lz       = 24.852501 Density  = 0.997815 
---------------- Step   151000 ----- CPU =     67.3808 (sec) ----------------
Time     = 755000.000000 Temp     = 293.565562 Press    = 1589.958262 
PotEng   = -10.070712 KinEng   = 0.873354 Lx       = 24.756436 
Ly       = 24.756436 Lz       = 24.756436 Density  = 1.009476 
---------------- Step   152000 ----- CPU =     67.8258 (sec) ----------------
Time     = 760000.000000 Temp     = 308.094850 Press    = -169.167141 
PotEng   = -10.064957 KinEng   = 0.916579 Lx       = 24.916921 
Ly       = 24.916921 Lz       = 24.916921 Density  = 0.990096 
---------------- Step   153000 ----- CPU =     68.2709 (sec) ----------------
Time     = 765000.000000 Temp     = 292.112302 Press    = 101.478733 
PotEng   = -10.065515 KinEng   = 0.869031 Lx       = 24.908527 
Ly       = 24.908527 Lz       = 24.908527 Density  = 0.991098 
---------------- Step   154000 ----- CPU =     68.7235 (sec) ----------------
Time     = 770000.000000 Temp     = 289.490393 Press    = 1522.889167 
PotEng   = -10.095424 KinEng   = 0.861230 Lx       = 24.729960 
Ly       = 24.729960 Lz       = 24.729960 Density  = 1.012722 
---------------- Step   155000 ----- CPU =     69.1617 (sec) ----------------
Time     = 775000.000000 Temp     = 306.363166 Press    = 36.082870 
PotEng   = -10.088052 KinEng   = 0.911427 Lx       = 24.889013 
Ly       = 24.889013 Lz       = 24.889013 Density  = 0.993430 
---------------- Step   156000 ----- CPU =     69.6237 (sec) ----------------
Time     = 780000.000000 Temp     = 306.566100 Press    = 460.393023 
PotEng   = -10.110357 KinEng   = 0.912031 Lx       = 24.775364 
Ly       = 24.775364 Lz       = 24.775364 Density  = 1.007164 
---------------- Step   157000 ----- CPU =     70.0720 (sec) ----------------
Time     = 785000.000000 Temp     = 312.196828 Press    = -166.081971 
PotEng   = -10.062585 KinEng   = 0.928782 Lx       = 24.861868 
Ly       = 24.861868 Lz       = 24.861868 Density  = 0.996688 
---------------- Step   158000 ----- CPU =     70.5179 (sec) ----------------
Time     = 790000.000000 Temp     = 297.275922 Press    = -413.820538 
PotEng   = -10.094490 KinEng   = 0.884392 Lx       = 24.857186 
Ly       = 24.857186 Lz       = 24.857186 Density  = 0.997251 
---------------- Step   159000 ----- CPU =     70.9471 (sec) ----------------
Time     = 795000.000000 Temp     = 299.514186 Press    = -676.320156 
PotEng   = -10.038810 KinEng   = 0.891051 Lx       = 24.927114 
Ly       = 24.927114 Lz       = 24.927114 Density  = 0.988882 
---------------- Step   160000 ----- CPU =     71.3814 (sec) ----------------
Time     = 800000.000000 Temp     = 293.712693 Press    = -474.274494 
PotEng   = -10.062008 KinEng   = 0.873792 Lx       = 24.926029 
Ly       = 24.926029 Lz       = 24.926029 Density  = 0.989011 
---------------- Step   161000 ----- CPU =     71.8165 (sec) ----------------
Time     = 805000.000000 Temp     = 319.834843 Press    = -379.776167 
PotEng   = -10.115133 KinEng   = 0.951505 Lx       = 24.882832 
Ly       = 24.882832 Lz       = 24.882832 Density  = 0.994171 
---------------- Step   162000 ----- CPU =     72.2597 (sec) ----------------
Time     = 810000.000000 Temp     = 320.229310 Press    = -81.887313 
PotEng   = -10.018423 KinEng   = 0.952678 Lx       = 24.890848 
Ly       = 24.890848 Lz       = 24.890848 Density  = 0.993211 
---------------- Step   163000 ----- CPU =     72.7024 (sec) ----------------
Time     = 815000.000000 Temp     = 299.343489 Press    = -512.685845 
PotEng   = -10.098571 KinEng   = 0.890543 Lx       = 24.861239 
Ly       = 24.861239 Lz       = 24.861239 Density  = 0.996764 
---------------- Step   164000 ----- CPU =     73.1450 (sec) ----------------
Time     = 820000.000000 Temp     = 285.886310 Press    = 1186.679088 
PotEng   = -10.071048 KinEng   = 0.850508 Lx       = 24.726062 
Ly       = 24.726062 Lz       = 24.726062 Density  = 1.013201 
---------------- Step   165000 ----- CPU =     73.5841 (sec) ----------------
Time     = 825000.000000 Temp     = 306.108199 Press    = -40.967755 
PotEng   = -10.044132 KinEng   = 0.910668 Lx       = 24.848558 
Ly       = 24.848558 Lz       = 24.848558 Density  = 0.998291 
---------------- Step   166000 ----- CPU =     74.0275 (sec) ----------------
Time     = 830000.000000 Temp     = 314.775592 Press    = 567.214314 
PotEng   = -10.003632 KinEng   = 0.936454 Lx       = 24.741972 
Ly       = 24.741972 Lz       = 24.741972 Density  = 1.011248 
---------------- Step   167000 ----- CPU =     74.4702 (sec) ----------------
Time     = 835000.000000 Temp     = 297.118872 Press    = -599.786447 
PotEng   = -10.022805 KinEng   = 0.883925 Lx       = 24.973247 
Ly       = 24.973247 Lz       = 24.973247 Density  = 0.983412 
---------------- Step   168000 ----- CPU =     74.9075 (sec) ----------------
Time     = 840000.000000 Temp     = 305.748360 Press    = 1096.029772 
PotEng   = -10.153671 KinEng   = 0.909598 Lx       = 24.799848 
Ly       = 24.799848 Lz       = 24.799848 Density  = 1.004184 
---------------- Step   169000 ----- CPU =     75.3557 (sec) ----------------
Time     = 845000.000000 Temp     = 299.049607 Press    = 803.575899 
PotEng   = -10.066227 KinEng   = 0.889669 Lx       = 24.835320 
Ly       = 24.835320 Lz       = 24.835320 Density  = 0.999888 
---------------- Step   170000 ----- CPU =     75.7944 (sec) ----------------
Time     = 850000.000000 Temp     = 292.808219 Press    = -843.804718 
PotEng   = -10.087290 KinEng   = 0.871101 Lx       = 24.916507 
Ly       = 24.916507 Lz       = 24.916507 Density  = 0.990146 
---------------- Step   171000 ----- CPU =     76.2371 (sec) ----------------
Time     = 855000.000000 Temp     = 295.252526 Press    = 123.106767 
PotEng   = -10.065181 KinEng   = 0.878373 Lx       = 24.866103 
Ly       = 24.866103 Lz       = 24.866103 Density  = 0.996179 
---------------- Step   172000 ----- CPU =     76.6782 (sec) ----------------
Time     = 860000.000000 Temp     = 299.532976 Press    = 39.158727 
PotEng   = -10.010708 KinEng   = 0.891107 Lx       = 24.827020 
Ly       = 24.827020 Lz       = 24.827020 Density  = 1.000891 
---------------- Step   173000 ----- CPU =     77.1169 (sec) ----------------
Time     = 865000.000000 Temp     = 309.724864 Press    = 668.381557 
PotEng   = -10.070034 KinEng   = 0.921428 Lx       = 24.780736 
Ly       = 24.780736 Lz       = 24.780736 Density  = 1.006510 
---------------- Step   174000 ----- CPU =     77.5641 (sec) ----------------
Time     = 870000.000000 Temp     = 317.458114 Press    = 1079.896313 
PotEng   = -10.070626 KinEng   = 0.944434 Lx       = 24.786836 
Ly       = 24.786836 Lz       = 24.786836 Density  = 1.005767 
---------------- Step   175000 ----- CPU =     78.0072 (sec) ----------------
Time     = 875000.000000 Temp     = 279.870118 Press    = -1003.240470 
PotEng   = -10.072260 KinEng   = 0.832610 Lx       = 24.931658 
Ly       = 24.931658 Lz       = 24.931658 Density  = 0.988342 
---------------- Step   176000 ----- CPU =     78.4726 (sec) ----------------
Time     = 880000.000000 Temp     = 301.555591 Press    = 132.550437 
PotEng   = -10.048029 KinEng   = 0.897124 Lx       = 24.937209 
Ly       = 24.937209 Lz       = 24.937209 Density  = 0.987682 
---------------- Step   177000 ----- CPU =     78.9404 (sec) ----------------
Time     = 885000.000000 Temp     = 307.603788 Press    = 1660.042737 
PotEng   = -10.036201 KinEng   = 0.915118 Lx       = 24.823119 
Ly       = 24.823119 Lz       = 24.823119 Density  = 1.001363 
---------------- Step   178000 ----- CPU =     79.4147 (sec) ----------------
Time     = 890000.000000 Temp     = 295.178694 Press    = 282.299013 
PotEng   = -10.049434 KinEng   = 0.878153 Lx       = 24.822987 
Ly       = 24.822987 Lz       = 24.822987 Density  = 1.001379 
---------------- Step   179000 ----- CPU =     79.8570 (sec) ----------------
Time     = 895000.000000 Temp     = 274.432458 Press    = 373.838613 
PotEng   = -10.087866 KinEng   = 0.816433 Lx       = 24.803751 
Ly       = 24.803751 Lz       = 24.803751 Density  = 1.003710 
---------------- Step   180000 ----- CPU =     80.3051 (sec) ----------------
Time     = 900000.000000 Temp     = 298.123349 Press    = 755.575619 
PotEng   = -10.027891 KinEng   = 0.886913 Lx       = 24.787134 
Ly       = 24.787134 Lz       = 24.787134 Density  = 1.005730 
---------------- Step   181000 ----- CPU =     80.7468 (sec) ----------------
Time     = 905000.000000 Temp     = 321.889939 Press    = -185.208978 
PotEng   = -10.034440 KinEng   = 0.957619 Lx       = 24.940318 
Ly       = 24.940318 Lz       = 24.940318 Density  = 0.987312 
---------------- Step   182000 ----- CPU =     81.1790 (sec) ----------------
Time     = 910000.000000 Temp     = 315.252190 Press    = 460.229636 
PotEng   = -10.061405 KinEng   = 0.937872 Lx       = 24.801693 
Ly       = 24.801693 Lz       = 24.801693 Density  = 1.003960 
---------------- Step   183000 ----- CPU =     81.6235 (sec) ----------------
Time     = 915000.000000 Temp     = 295.351800 Press    = 176.029269 
PotEng   = -10.084995 KinEng   = 0.878668 Lx       = 24.861658 
Ly       = 24.861658 Lz       = 24.861658 Density  = 0.996713 
---------------- Step   184000 ----- CPU =     82.0594 (sec) ----------------
Time     = 920000.000000 Temp     = 319.470820 Press    = -588.422304 
PotEng   = -10.082168 KinEng   = 0.950422 Lx       = 24.912015 
Ly       = 24.912015 Lz       = 24.912015 Density  = 0.990681 
---------------- Step   185000 ----- CPU =     82.4972 (sec) ----------------
Time     = 925000.000000 Temp     = 300.023979 Press    = 613.195212 
PotEng   = -10.119741 KinEng   = 0.892568 Lx       = 24.798833 
Ly       = 24.798833 Lz       = 24.798833 Density  = 1.004308 
---------------- Step   186000 ----- CPU =     82.9326 (sec) ----------------
Time     = 930000.000000 Temp     = 291.644770 Press    = 1051.866282 
PotEng   = -10.043826 KinEng   = 0.867640 Lx       = 24.824746 
Ly       = 24.824746 Lz       = 24.824746 Density  = 1.001166 
---------------- Step   187000 ----- CPU =     83.3767 (sec) ----------------
Time     = 935000.000000 Temp     = 295.476765 Press    = -403.108787 
PotEng   = -10.013776 KinEng   = 0.879040 Lx       = 24.861157 
Ly       = 24.861157 Lz       = 24.861157 Density  = 0.996774 
---------------- Step   188000 ----- CPU =     83.8269 (sec) ----------------
Time     = 940000.000000 Temp     = 326.015135 Press    = -822.364113 
PotEng   = -10.028399 KinEng   = 0.969891 Lx       = 24.941130 
Ly       = 24.941130 Lz       = 24.941130 Density  = 0.987216 
---------------- Step   189000 ----- CPU =     84.2704 (sec) ----------------
Time     = 945000.000000 Temp     = 296.511343 Press    = 269.728632 
PotEng   = -10.071306 KinEng   = 0.882118 Lx       = 24.764974 
Ly       = 24.764974 Lz       = 24.764974 Density  = 1.008433 
---------------- Step   190000 ----- CPU =     84.7145 (sec) ----------------
Time     = 950000.000000 Temp     = 306.055508 Press    = 262.628919 
PotEng   = -10.073130 KinEng   = 0.910512 Lx       = 24.872874 
Ly       = 24.872874 Lz       = 24.872874 Density  = 0.995365 
---------------- Step   191000 ----- CPU =     85.1637 (sec) ----------------
Time     = 955000.000000 Temp     = 290.248143 Press    = -258.849729 
PotEng   = -10.049859 KinEng   = 0.863485 Lx       = 24.746129 
Ly       = 24.746129 Lz       = 24.746129 Density  = 1.010738 
---------------- Step   192000 ----- CPU =     85.6077 (sec) ----------------
Time     = 960000.000000 Temp     = 293.073667 Press    = 1080.516425 
PotEng   = -10.084734 KinEng   = 0.871891 Lx       = 24.808805 
Ly       = 24.808805 Lz       = 24.808805 Density  = 1.003097 
---------------- Step   193000 ----- CPU =     86.0458 (sec) ----------------
Time     = 965000.000000 Temp     = 290.658829 Press    = -84.071586 
PotEng   = -10.058789 KinEng   = 0.864707 Lx       = 24.875701 
Ly       = 24.875701 Lz       = 24.875701 Density  = 0.995026 
---------------- Step   194000 ----- CPU =     86.4837 (sec) ----------------
Time     = 970000.000000 Temp     = 280.715794 Press    = -533.296043 
PotEng   = -10.043720 KinEng   = 0.835126 Lx       = 24.977616 
Ly       = 24.977616 Lz       = 24.977616 Density  = 0.982896 
---------------- Step   195000 ----- CPU =     86.9198 (sec) ----------------
Time     = 975000.000000 Temp     = 300.789904 Press    = 503.098642 
PotEng   = -10.030290 KinEng   = 0.894846 Lx       = 24.824021 
Ly       = 24.824021 Lz       = 24.824021 Density  = 1.001254 
---------------- Step   196000 ----- CPU =     87.3617 (sec) ----------------
Time     = 980000.000000 Temp     = 297.190175 Press    = 142.531009 
PotEng   = -10.084872 KinEng   = 0.884137 Lx       = 24.855500 
Ly       = 24.855500 Lz       = 24.855500 Density  = 0.997454 
---------------- Step   197000 ----- CPU =     87.8046 (sec) ----------------
Time     = 985000.000000 Temp     = 297.360662 Press    = -201.674524 
PotEng   = -10.126399 KinEng   = 0.884644 Lx       = 24.853692 
Ly       = 24.853692 Lz       = 24.853692 Density  = 0.997672 
---------------- Step   198000 ----- CPU =     88.2515 (sec) ----------------
Time     = 990000.000000 Temp     = 305.191182 Press    = -79.358992 
PotEng   = -10.034433 KinEng   = 0.907940 Lx       = 24.859446 
Ly       = 24.859446 Lz       = 24.859446 Density  = 0.996979 
---------------- Step   199000 ----- CPU =     88.7005 (sec) ----------------
Time     = 995000.000000 Temp     = 324.754545 Press    = 689.410970 
PotEng   = -10.077781 KinEng   = 0.966141 Lx       = 24.784261 
Ly       = 24.784261 Lz       = 24.784261 Density  = 1.006080 
---------------- Step   200000 ----- CPU =     89.1479 (sec) ----------------
Time     = 1000000.000000 Temp     = 281.306185 Press    = 501.432069 
PotEng   = -10.153506 KinEng   = 0.836883 Lx       = 24.741177 
Ly       = 24.741177 Lz       = 24.741177 Density  = 1.011345 
Loop time of 89.148 on 8 procs for 200000 steps with 512 atoms

Performance: 969.175 ns/day, 0.025 hours/ns, 2243.461 timesteps/s
96.2% CPU use with 8 MPI tasks x no OpenMP threads

MPI task timing breakdown:
Section |  min time  |  avg time  |  max time  |%varavg| %total
---------------------------------------------------------------
Pair    | 69.438     | 71.479     | 73.654     |  15.7 | 80.18
Neigh   | 1.8149     | 1.8635     | 1.9062     |   2.2 |  2.09
Comm    | 10.993     | 13.261     | 15.394     |  37.4 | 14.88
Output  | 0.0039711  | 0.0059529  | 0.019761   |   6.8 |  0.01
Modify  | 1.9704     | 2.0665     | 2.1136     |   3.2 |  2.32
Other   |            | 0.4725     |            |       |  0.53

Nlocal:    64 ave 69 max 59 min
Histogram: 1 1 0 0 0 2 2 1 0 1
Nghost:    462 ave 467 max 456 min
Histogram: 1 1 0 0 1 1 1 1 1 1
Neighs:    0 ave 0 max 0 min
Histogram: 8 0 0 0 0 0 0 0 0 0
FullNghs:  2161.75 ave 2377 max 2043 min
Histogram: 2 0 2 1 1 1 0 0 0 1

Total # of neighbors = 17294
Ave neighs/atom = 33.7773
Neighbor list builds = 13222
Dangerous builds = 0
Setting up Verlet run ...
  Unit style    : real
  Current step  : 0
  Time step     : 5
Per MPI rank memory allocation (min/avg/max) = 5.502 | 5.502 | 5.502 Mbytes
---------------- Step        0 ----- CPU =      0.0000 (sec) ----------------
Time     = 1000000.000000 Temp     = 281.306185 Press    = 501.432069 
PotEng   = -10.153506 KinEng   = 0.836883 Lx       = 24.741177 
Ly       = 24.741177 Lz       = 24.741177 Density  = 1.011345 
---------------- Step     1000 ----- CPU =      0.4473 (sec) ----------------
Time     = 1005000.000000 Temp     = 287.469768 Press    = -544.641116 
PotEng   = -10.064291 KinEng   = 0.855219 Lx       = 24.913939 
Ly       = 24.913939 Lz       = 24.913939 Density  = 0.990452 
---------------- Step     2000 ----- CPU =      0.9049 (sec) ----------------
Time     = 1010000.000000 Temp     = 297.288442 Press    = 637.569872 
PotEng   = -10.038937 KinEng   = 0.884430 Lx       = 24.893642 
Ly       = 24.893642 Lz       = 24.893642 Density  = 0.992876 
---------------- Step     3000 ----- CPU =      1.3465 (sec) ----------------
Time     = 1015000.000000 Temp     = 301.362839 Press    = 518.651036 
PotEng   = -10.027233 KinEng   = 0.896551 Lx       = 24.889581 
Ly       = 24.889581 Lz       = 24.889581 Density  = 0.993363 
---------------- Step     4000 ----- CPU =      1.7789 (sec) ----------------
Time     = 1020000.000000 Temp     = 309.027427 Press    = 586.011749 
PotEng   = -10.084056 KinEng   = 0.919353 Lx       = 24.837260 
Ly       = 24.837260 Lz       = 24.837260 Density  = 0.999654 
---------------- Step     5000 ----- CPU =      2.2164 (sec) ----------------
Time     = 1025000.000000 Temp     = 314.011733 Press    = -648.486915 
PotEng   = -10.056392 KinEng   = 0.934181 Lx       = 24.916547 
Ly       = 24.916547 Lz       = 24.916547 Density  = 0.990141 
---------------- Step     6000 ----- CPU =      2.6655 (sec) ----------------
Time     = 1030000.000000 Temp     = 305.805564 Press    = -359.405022 
PotEng   = -10.022953 KinEng   = 0.909768 Lx       = 24.851379 
Ly       = 24.851379 Lz       = 24.851379 Density  = 0.997951 
---------------- Step     7000 ----- CPU =      3.1107 (sec) ----------------
Time     = 1035000.000000 Temp     = 307.771359 Press    = -275.018743 
PotEng   = -10.028354 KinEng   = 0.915616 Lx       = 24.842061 
Ly       = 24.842061 Lz       = 24.842061 Density  = 0.999074 
---------------- Step     8000 ----- CPU =      3.5579 (sec) ----------------
Time     = 1040000.000000 Temp     = 274.975196 Press    = -827.693711 
PotEng   = -10.064869 KinEng   = 0.818048 Lx       = 24.883901 
Ly       = 24.883901 Lz       = 24.883901 Density  = 0.994043 
---------------- Step     9000 ----- CPU =      4.0031 (sec) ----------------
Time     = 1045000.000000 Temp     = 288.873038 Press    = -296.846047 
PotEng   = -10.091551 KinEng   = 0.859394 Lx       = 24.940424 
Ly       = 24.940424 Lz       = 24.940424 Density  = 0.987300 
---------------- Step    10000 ----- CPU =      4.4480 (sec) ----------------
Time     = 1050000.000000 Temp     = 312.172158 Press    = -547.135978 
PotEng   = -10.083797 KinEng   = 0.928708 Lx       = 24.955647 
Ly       = 24.955647 Lz       = 24.955647 Density  = 0.985494 
---------------- Step    11000 ----- CPU =      4.8788 (sec) ----------------
Time     = 1055000.000000 Temp     = 302.445257 Press    = -266.812649 
PotEng   = -10.090633 KinEng   = 0.899771 Lx       = 24.880608 
Ly       = 24.880608 Lz       = 24.880608 Density  = 0.994438 
---------------- Step    12000 ----- CPU =      5.3255 (sec) ----------------
Time     = 1060000.000000 Temp     = 294.770445 Press    = 305.464085 
PotEng   = -10.109467 KinEng   = 0.876939 Lx       = 24.805864 
Ly       = 24.805864 Lz       = 24.805864 Density  = 1.003454 
---------------- Step    13000 ----- CPU =      5.7661 (sec) ----------------
Time     = 1065000.000000 Temp     = 299.989986 Press    = -910.346532 
PotEng   = -10.099073 KinEng   = 0.892467 Lx       = 24.965745 
Ly       = 24.965745 Lz       = 24.965745 Density  = 0.984299 
---------------- Step    14000 ----- CPU =      6.2040 (sec) ----------------
Time     = 1070000.000000 Temp     = 290.308753 Press    = -73.883231 
PotEng   = -10.141368 KinEng   = 0.863665 Lx       = 24.872386 
Ly       = 24.872386 Lz       = 24.872386 Density  = 0.995424 
---------------- Step    15000 ----- CPU =      6.6437 (sec) ----------------
Time     = 1075000.000000 Temp     = 299.864001 Press    = 316.204305 
PotEng   = -10.031293 KinEng   = 0.892092 Lx       = 24.858227 
Ly       = 24.858227 Lz       = 24.858227 Density  = 0.997126 
---------------- Step    16000 ----- CPU =      7.0835 (sec) ----------------
Time     = 1080000.000000 Temp     = 302.176155 Press    = -1100.568163 
PotEng   = -10.002030 KinEng   = 0.898970 Lx       = 24.958850 
Ly       = 24.958850 Lz       = 24.958850 Density  = 0.985115 
---------------- Step    17000 ----- CPU =      7.5408 (sec) ----------------
Time     = 1085000.000000 Temp     = 310.710458 Press    = -643.732101 
PotEng   = -10.036199 KinEng   = 0.924360 Lx       = 24.861458 
Ly       = 24.861458 Lz       = 24.861458 Density  = 0.996737 
---------------- Step    18000 ----- CPU =      7.9828 (sec) ----------------
Time     = 1090000.000000 Temp     = 296.539225 Press    = -107.760210 
PotEng   = -10.038333 KinEng   = 0.882201 Lx       = 24.912600 
Ly       = 24.912600 Lz       = 24.912600 Density  = 0.990611 
---------------- Step    19000 ----- CPU =      8.4282 (sec) ----------------
Time     = 1095000.000000 Temp     = 309.283400 Press    = 516.272948 
PotEng   = -10.094071 KinEng   = 0.920114 Lx       = 24.789742 
Ly       = 24.789742 Lz       = 24.789742 Density  = 1.005413 
---------------- Step    20000 ----- CPU =      8.8764 (sec) ----------------
Time     = 1100000.000000 Temp     = 304.356954 Press    = -796.991258 
PotEng   = -10.059571 KinEng   = 0.905458 Lx       = 24.875195 
Ly       = 24.875195 Lz       = 24.875195 Density  = 0.995087 
---------------- Step    21000 ----- CPU =      9.3177 (sec) ----------------
Time     = 1105000.000000 Temp     = 301.218864 Press    = 1068.913014 
PotEng   = -10.061436 KinEng   = 0.896123 Lx       = 24.818832 
Ly       = 24.818832 Lz       = 24.818832 Density  = 1.001882 
---------------- Step    22000 ----- CPU =      9.7676 (sec) ----------------
Time     = 1110000.000000 Temp     = 302.298932 Press    = -869.658731 
PotEng   = -10.016031 KinEng   = 0.899336 Lx       = 24.898154 
Ly       = 24.898154 Lz       = 24.898154 Density  = 0.992337 
---------------- Step    23000 ----- CPU =     10.2102 (sec) ----------------
Time     = 1115000.000000 Temp     = 303.718454 Press    = 122.690766 
PotEng   = -10.153049 KinEng   = 0.903559 Lx       = 24.822323 
Ly       = 24.822323 Lz       = 24.822323 Density  = 1.001459 
---------------- Step    24000 ----- CPU =     10.6567 (sec) ----------------
Time     = 1120000.000000 Temp     = 306.553662 Press    = -451.804973 
PotEng   = -10.065373 KinEng   = 0.911994 Lx       = 24.864500 
Ly       = 24.864500 Lz       = 24.864500 Density  = 0.996372 
---------------- Step    25000 ----- CPU =     11.0907 (sec) ----------------
Time     = 1125000.000000 Temp     = 284.201106 Press    = -982.955333 
PotEng   = -10.089842 KinEng   = 0.845495 Lx       = 24.903028 
Ly       = 24.903028 Lz       = 24.903028 Density  = 0.991754 
---------------- Step    26000 ----- CPU =     11.5301 (sec) ----------------
Time     = 1130000.000000 Temp     = 274.588829 Press    = 1096.056840 
PotEng   = -10.088603 KinEng   = 0.816899 Lx       = 24.871690 
Ly       = 24.871690 Lz       = 24.871690 Density  = 0.995508 
---------------- Step    27000 ----- CPU =     11.9633 (sec) ----------------
Time     = 1135000.000000 Temp     = 299.704213 Press    = -560.274937 
PotEng   = -9.971956 KinEng   = 0.891616 Lx       = 24.876067 
Ly       = 24.876067 Lz       = 24.876067 Density  = 0.994982 
---------------- Step    28000 ----- CPU =     12.4126 (sec) ----------------
Time     = 1140000.000000 Temp     = 292.001613 Press    = -586.730818 
PotEng   = -10.058028 KinEng   = 0.868701 Lx       = 24.846770 
Ly       = 24.846770 Lz       = 24.846770 Density  = 0.998506 
---------------- Step    29000 ----- CPU =     12.8575 (sec) ----------------
Time     = 1145000.000000 Temp     = 303.867821 Press    = 784.811909 
PotEng   = -10.082226 KinEng   = 0.904003 Lx       = 24.769090 
Ly       = 24.769090 Lz       = 24.769090 Density  = 1.007930 
---------------- Step    30000 ----- CPU =     13.3054 (sec) ----------------
Time     = 1150000.000000 Temp     = 302.928332 Press    = 557.249195 
PotEng   = -10.044270 KinEng   = 0.901208 Lx       = 24.791048 
Ly       = 24.791048 Lz       = 24.791048 Density  = 1.005254 
---------------- Step    31000 ----- CPU =     13.7452 (sec) ----------------
Time     = 1155000.000000 Temp     = 292.381770 Press    = 945.712177 
PotEng   = -10.106218 KinEng   = 0.869832 Lx       = 24.743811 
Ly       = 24.743811 Lz       = 24.743811 Density  = 1.011022 
---------------- Step    32000 ----- CPU =     14.1870 (sec) ----------------
Time     = 1160000.000000 Temp     = 296.618472 Press    = 453.713600 
PotEng   = -10.103982 KinEng   = 0.882436 Lx       = 24.802256 
Ly       = 24.802256 Lz       = 24.802256 Density  = 1.003892 
---------------- Step    33000 ----- CPU =     14.6302 (sec) ----------------
Time     = 1165000.000000 Temp     = 289.228895 Press    = -514.793701 
PotEng   = -10.101063 KinEng   = 0.860453 Lx       = 24.831796 
Ly       = 24.831796 Lz       = 24.831796 Density  = 1.000313 
---------------- Step    34000 ----- CPU =     15.0742 (sec) ----------------
Time     = 1170000.000000 Temp     = 310.081699 Press    = 58.772834 
PotEng   = -10.061600 KinEng   = 0.922489 Lx       = 24.836382 
Ly       = 24.836382 Lz       = 24.836382 Density  = 0.999759 
---------------- Step    35000 ----- CPU =     15.5176 (sec) ----------------
Time     = 1175000.000000 Temp     = 311.733470 Press    = -41.357912 
PotEng   = -9.994590 KinEng   = 0.927403 Lx       = 24.845118 
Ly       = 24.845118 Lz       = 24.845118 Density  = 0.998705 
---------------- Step    36000 ----- CPU =     15.9655 (sec) ----------------
Time     = 1180000.000000 Temp     = 315.560189 Press    = -911.038960 
PotEng   = -10.141242 KinEng   = 0.938788 Lx       = 24.863449 
Ly       = 24.863449 Lz       = 24.863449 Density  = 0.996498 
---------------- Step    37000 ----- CPU =     16.4073 (sec) ----------------
Time     = 1185000.000000 Temp     = 311.231843 Press    = 494.909009 
PotEng   = -10.061547 KinEng   = 0.925911 Lx       = 24.809430 
Ly       = 24.809430 Lz       = 24.809430 Density  = 1.003021 
---------------- Step    38000 ----- CPU =     16.8523 (sec) ----------------
Time     = 1190000.000000 Temp     = 284.207952 Press    = -131.598500 
PotEng   = -10.134729 KinEng   = 0.845515 Lx       = 24.922229 
Ly       = 24.922229 Lz       = 24.922229 Density  = 0.989464 
---------------- Step    39000 ----- CPU =     17.3028 (sec) ----------------
Time     = 1195000.000000 Temp     = 306.857859 Press    = 1739.600542 
PotEng   = -10.166324 KinEng   = 0.912898 Lx       = 24.699271 
Ly       = 24.699271 Lz       = 24.699271 Density  = 1.016502 
---------------- Step    40000 ----- CPU =     17.7502 (sec) ----------------
Time     = 1200000.000000 Temp     = 305.954561 Press    = -1180.273435 
PotEng   = -10.088611 KinEng   = 0.910211 Lx       = 24.836235 
Ly       = 24.836235 Lz       = 24.836235 Density  = 0.999777 
---------------- Step    41000 ----- CPU =     18.1994 (sec) ----------------
Time     = 1205000.000000 Temp     = 302.799274 Press    = 454.492895 
PotEng   = -10.075591 KinEng   = 0.900824 Lx       = 24.803246 
Ly       = 24.803246 Lz       = 24.803246 Density  = 1.003772 
---------------- Step    42000 ----- CPU =     18.6484 (sec) ----------------
Time     = 1210000.000000 Temp     = 296.934682 Press    = 76.187946 
PotEng   = -10.109232 KinEng   = 0.883377 Lx       = 24.846120 
Ly       = 24.846120 Lz       = 24.846120 Density  = 0.998584 
---------------- Step    43000 ----- CPU =     19.0972 (sec) ----------------
Time     = 1215000.000000 Temp     = 288.514023 Press    = -90.553215 
PotEng   = -10.031165 KinEng   = 0.858326 Lx       = 24.830249 
Ly       = 24.830249 Lz       = 24.830249 Density  = 1.000500 
---------------- Step    44000 ----- CPU =     19.5569 (sec) ----------------
Time     = 1220000.000000 Temp     = 305.289009 Press    = 689.671029 
PotEng   = -9.975769 KinEng   = 0.908231 Lx       = 24.866091 
Ly       = 24.866091 Lz       = 24.866091 Density  = 0.996180 
---------------- Step    45000 ----- CPU =     19.9975 (sec) ----------------
Time     = 1225000.000000 Temp     = 314.922417 Press    = 456.194218 
PotEng   = -10.027687 KinEng   = 0.936890 Lx       = 24.824740 
Ly       = 24.824740 Lz       = 24.824740 Density  = 1.001167 
---------------- Step    46000 ----- CPU =     20.4382 (sec) ----------------
Time     = 1230000.000000 Temp     = 286.141756 Press    = -307.661336 
PotEng   = -10.126910 KinEng   = 0.851268 Lx       = 24.835009 
Ly       = 24.835009 Lz       = 24.835009 Density  = 0.999925 
---------------- Step    47000 ----- CPU =     23.2491 (sec) ----------------
Time     = 1235000.000000 Temp     = 300.787879 Press    = -56.144700 
PotEng   = -10.061570 KinEng   = 0.894840 Lx       = 24.875788 
Ly       = 24.875788 Lz       = 24.875788 Density  = 0.995016 
---------------- Step    48000 ----- CPU =     23.7264 (sec) ----------------
Time     = 1240000.000000 Temp     = 318.359843 Press    = 445.132629 
PotEng   = -10.066281 KinEng   = 0.947117 Lx       = 24.834991 
Ly       = 24.834991 Lz       = 24.834991 Density  = 0.999928 
---------------- Step    49000 ----- CPU =     24.1962 (sec) ----------------
Time     = 1245000.000000 Temp     = 288.036293 Press    = -583.476521 
PotEng   = -9.981537 KinEng   = 0.856905 Lx       = 24.831849 
Ly       = 24.831849 Lz       = 24.831849 Density  = 1.000307 
---------------- Step    50000 ----- CPU =     24.6700 (sec) ----------------
Time     = 1250000.000000 Temp     = 292.731457 Press    = 1399.064660 
PotEng   = -10.092135 KinEng   = 0.870873 Lx       = 24.712868 
Ly       = 24.712868 Lz       = 24.712868 Density  = 1.014825 
---------------- Step    51000 ----- CPU =     25.1438 (sec) ----------------
Time     = 1255000.000000 Temp     = 303.049877 Press    = -19.682306 
PotEng   = -10.103742 KinEng   = 0.901570 Lx       = 24.860955 
Ly       = 24.860955 Lz       = 24.860955 Density  = 0.996798 
---------------- Step    52000 ----- CPU =     25.6002 (sec) ----------------
Time     = 1260000.000000 Temp     = 302.047040 Press    = 289.725819 
PotEng   = -10.154966 KinEng   = 0.898586 Lx       = 24.803514 
Ly       = 24.803514 Lz       = 24.803514 Density  = 1.003739 
---------------- Step    53000 ----- CPU =     26.0770 (sec) ----------------
Time     = 1265000.000000 Temp     = 286.348584 Press    = 345.535688 
PotEng   = -10.082247 KinEng   = 0.851884 Lx       = 24.852164 
Ly       = 24.852164 Lz       = 24.852164 Density  = 0.997856 
---------------- Step    54000 ----- CPU =     26.5343 (sec) ----------------
Time     = 1270000.000000 Temp     = 311.041983 Press    = -0.104965 
PotEng   = -10.060175 KinEng   = 0.925346 Lx       = 24.836216 
Ly       = 24.836216 Lz       = 24.836216 Density  = 0.999779 
---------------- Step    55000 ----- CPU =     26.9717 (sec) ----------------
Time     = 1275000.000000 Temp     = 299.123560 Press    = 822.236902 
PotEng   = -10.039058 KinEng   = 0.889889 Lx       = 24.884717 
Ly       = 24.884717 Lz       = 24.884717 Density  = 0.993945 
---------------- Step    56000 ----- CPU =     27.4139 (sec) ----------------
Time     = 1280000.000000 Temp     = 306.567897 Press    = -344.427704 
PotEng   = -10.072094 KinEng   = 0.912036 Lx       = 24.837146 
Ly       = 24.837146 Lz       = 24.837146 Density  = 0.999667 
---------------- Step    57000 ----- CPU =     27.8554 (sec) ----------------
Time     = 1285000.000000 Temp     = 299.004186 Press    = 463.287600 
PotEng   = -10.084957 KinEng   = 0.889534 Lx       = 24.844061 
Ly       = 24.844061 Lz       = 24.844061 Density  = 0.998833 
---------------- Step    58000 ----- CPU =     28.2984 (sec) ----------------
Time     = 1290000.000000 Temp     = 295.303095 Press    = -117.820409 
PotEng   = -10.054155 KinEng   = 0.878523 Lx       = 24.891192 
Ly       = 24.891192 Lz       = 24.891192 Density  = 0.993170 
---------------- Step    59000 ----- CPU =     28.7404 (sec) ----------------
Time     = 1295000.000000 Temp     = 284.453943 Press    = -663.877422 
PotEng   = -10.087808 KinEng   = 0.846247 Lx       = 24.811466 
Ly       = 24.811466 Lz       = 24.811466 Density  = 1.002774 
---------------- Step    60000 ----- CPU =     29.1808 (sec) ----------------
Time     = 1300000.000000 Temp     = 292.666362 Press    = -622.074573 
PotEng   = -10.077119 KinEng   = 0.870679 Lx       = 24.826790 
Ly       = 24.826790 Lz       = 24.826790 Density  = 1.000919 
---------------- Step    61000 ----- CPU =     29.6289 (sec) ----------------
Time     = 1305000.000000 Temp     = 305.591762 Press    = -1140.328343 
PotEng   = -10.090465 KinEng   = 0.909132 Lx       = 24.802068 
Ly       = 24.802068 Lz       = 24.802068 Density  = 1.003915 
---------------- Step    62000 ----- CPU =     30.0702 (sec) ----------------
Time     = 1310000.000000 Temp     = 295.137622 Press    = 292.792260 
PotEng   = -10.057484 KinEng   = 0.878031 Lx       = 24.791900 
Ly       = 24.791900 Lz       = 24.791900 Density  = 1.005151 
---------------- Step    63000 ----- CPU =     30.5110 (sec) ----------------
Time     = 1315000.000000 Temp     = 293.126013 Press    = -153.754433 
PotEng   = -10.080256 KinEng   = 0.872046 Lx       = 24.894644 
Ly       = 24.894644 Lz       = 24.894644 Density  = 0.992756 
---------------- Step    64000 ----- CPU =     30.9460 (sec) ----------------
Time     = 1320000.000000 Temp     = 310.176673 Press    = 186.589594 
PotEng   = -10.084064 KinEng   = 0.922772 Lx       = 24.855764 
Ly       = 24.855764 Lz       = 24.855764 Density  = 0.997423 
---------------- Step    65000 ----- CPU =     31.3840 (sec) ----------------
Time     = 1325000.000000 Temp     = 293.885935 Press    = -636.180377 
PotEng   = -10.128649 KinEng   = 0.874307 Lx       = 24.876758 
Ly       = 24.876758 Lz       = 24.876758 Density  = 0.994899 
---------------- Step    66000 ----- CPU =     31.8228 (sec) ----------------
Time     = 1330000.000000 Temp     = 309.894520 Press    = -652.117047 
PotEng   = -10.098326 KinEng   = 0.921933 Lx       = 24.992371 
Ly       = 24.992371 Lz       = 24.992371 Density  = 0.981156 
---------------- Step    67000 ----- CPU =     32.2673 (sec) ----------------
Time     = 1335000.000000 Temp     = 299.663091 Press    = 549.546362 
PotEng   = -10.079039 KinEng   = 0.891494 Lx       = 24.783234 
Ly       = 24.783234 Lz       = 24.783234 Density  = 1.006205 
---------------- Step    68000 ----- CPU =     32.7024 (sec) ----------------
Time     = 1340000.000000 Temp     = 294.115826 Press    = -457.726088 
PotEng   = -10.138314 KinEng   = 0.874991 Lx       = 24.884826 
Ly       = 24.884826 Lz       = 24.884826 Density  = 0.993932 
---------------- Step    69000 ----- CPU =     33.1497 (sec) ----------------
Time     = 1345000.000000 Temp     = 315.949707 Press    = 166.225295 
PotEng   = -10.024927 KinEng   = 0.939947 Lx       = 24.839575 
Ly       = 24.839575 Lz       = 24.839575 Density  = 0.999374 
---------------- Step    70000 ----- CPU =     33.6063 (sec) ----------------
Time     = 1350000.000000 Temp     = 299.087937 Press    = -445.028595 
PotEng   = -10.082080 KinEng   = 0.889783 Lx       = 24.902236 
Ly       = 24.902236 Lz       = 24.902236 Density  = 0.991849 
---------------- Step    71000 ----- CPU =     34.0566 (sec) ----------------
Time     = 1355000.000000 Temp     = 314.245312 Press    = 426.585543 
PotEng   = -10.037388 KinEng   = 0.934876 Lx       = 24.859034 
Ly       = 24.859034 Lz       = 24.859034 Density  = 0.997029 
---------------- Step    72000 ----- CPU =     34.5074 (sec) ----------------
Time     = 1360000.000000 Temp     = 296.060202 Press    = 461.914179 
PotEng   = -10.066844 KinEng   = 0.880776 Lx       = 24.890609 
Ly       = 24.890609 Lz       = 24.890609 Density  = 0.993239 
---------------- Step    73000 ----- CPU =     34.9546 (sec) ----------------
Time     = 1365000.000000 Temp     = 288.950391 Press    = 228.354029 
PotEng   = -9.998247 KinEng   = 0.859624 Lx       = 24.886380 
Ly       = 24.886380 Lz       = 24.886380 Density  = 0.993746 
---------------- Step    74000 ----- CPU =     35.4041 (sec) ----------------
Time     = 1370000.000000 Temp     = 278.938772 Press    = 541.197860 
PotEng   = -10.025840 KinEng   = 0.829840 Lx       = 24.780019 
Ly       = 24.780019 Lz       = 24.780019 Density  = 1.006597 
---------------- Step    75000 ----- CPU =     35.8477 (sec) ----------------
Time     = 1375000.000000 Temp     = 268.852938 Press    = -372.980297 
PotEng   = -10.097053 KinEng   = 0.799834 Lx       = 24.823387 
Ly       = 24.823387 Lz       = 24.823387 Density  = 1.001330 
---------------- Step    76000 ----- CPU =     36.2925 (sec) ----------------
Time     = 1380000.000000 Temp     = 303.468187 Press    = 188.669017 
PotEng   = -10.068042 KinEng   = 0.902814 Lx       = 24.870603 
Ly       = 24.870603 Lz       = 24.870603 Density  = 0.995638 
---------------- Step    77000 ----- CPU =     36.7368 (sec) ----------------
Time     = 1385000.000000 Temp     = 295.200846 Press    = 49.501276 
PotEng   = -10.008084 KinEng   = 0.878219 Lx       = 24.852767 
Ly       = 24.852767 Lz       = 24.852767 Density  = 0.997783 
---------------- Step    78000 ----- CPU =     37.1788 (sec) ----------------
Time     = 1390000.000000 Temp     = 300.446034 Press    = -283.680296 
PotEng   = -10.058426 KinEng   = 0.893823 Lx       = 24.886990 
Ly       = 24.886990 Lz       = 24.886990 Density  = 0.993673 
---------------- Step    79000 ----- CPU =     37.6156 (sec) ----------------
Time     = 1395000.000000 Temp     = 298.018635 Press    = -899.843409 
PotEng   = -9.985194 KinEng   = 0.886602 Lx       = 24.948231 
Ly       = 24.948231 Lz       = 24.948231 Density  = 0.986373 
---------------- Step    80000 ----- CPU =     38.0561 (sec) ----------------
Time     = 1400000.000000 Temp     = 294.370292 Press    = -327.002494 
PotEng   = -10.006930 KinEng   = 0.875748 Lx       = 24.871513 
Ly       = 24.871513 Lz       = 24.871513 Density  = 0.995529 
---------------- Step    81000 ----- CPU =     38.5066 (sec) ----------------
Time     = 1405000.000000 Temp     = 291.317517 Press    = 1618.187040 
PotEng   = -10.038326 KinEng   = 0.866666 Lx       = 24.768926 
[...]
Time     = 25665000.000000 Temp     = 297.044876 Press    = 692.156302 
PotEng   = -10.114236 KinEng   = 0.883705 Lx       = 24.756766 
Ly       = 24.756766 Lz       = 24.756766 Density  = 1.009436 
---------------- Step  4934000 ----- CPU =   2196.3920 (sec) ----------------
Time     = 25670000.000000 Temp     = 291.550452 Press    = 1006.007099 
PotEng   = -10.036298 KinEng   = 0.867359 Lx       = 24.812887 
Ly       = 24.812887 Lz       = 24.812887 Density  = 1.002602 
---------------- Step  4935000 ----- CPU =   2196.8420 (sec) ----------------
Time     = 25675000.000000 Temp     = 301.503984 Press    = 598.741663 
PotEng   = -10.097528 KinEng   = 0.896971 Lx       = 24.764986 
Ly       = 24.764986 Lz       = 24.764986 Density  = 1.008431 
---------------- Step  4936000 ----- CPU =   2197.2946 (sec) ----------------
Time     = 25680000.000000 Temp     = 308.264324 Press    = -1115.429427 
PotEng   = -10.003297 KinEng   = 0.917083 Lx       = 25.029911 
Ly       = 25.029911 Lz       = 25.029911 Density  = 0.976748 
---------------- Step  4937000 ----- CPU =   2197.7297 (sec) ----------------
Time     = 25685000.000000 Temp     = 316.377536 Press    = 733.099599 
PotEng   = -10.092399 KinEng   = 0.941219 Lx       = 24.772445 
Ly       = 24.772445 Lz       = 24.772445 Density  = 1.007520 
---------------- Step  4938000 ----- CPU =   2198.1606 (sec) ----------------
Time     = 25690000.000000 Temp     = 323.733162 Press    = 406.003117 
PotEng   = -10.129738 KinEng   = 0.963102 Lx       = 24.911166 
Ly       = 24.911166 Lz       = 24.911166 Density  = 0.990783 
---------------- Step  4939000 ----- CPU =   2198.6009 (sec) ----------------
Time     = 25695000.000000 Temp     = 283.995932 Press    = 116.705654 
PotEng   = -10.108696 KinEng   = 0.844885 Lx       = 24.900092 
Ly       = 24.900092 Lz       = 24.900092 Density  = 0.992105 
---------------- Step  4940000 ----- CPU =   2199.0332 (sec) ----------------
Time     = 25700000.000000 Temp     = 303.824366 Press    = -511.970721 
PotEng   = -10.046449 KinEng   = 0.903874 Lx       = 24.955692 
Ly       = 24.955692 Lz       = 24.955692 Density  = 0.985489 
---------------- Step  4941000 ----- CPU =   2199.4784 (sec) ----------------
Time     = 25705000.000000 Temp     = 298.201245 Press    = 472.094333 
PotEng   = -10.045837 KinEng   = 0.887145 Lx       = 24.788705 
Ly       = 24.788705 Lz       = 24.788705 Density  = 1.005539 
---------------- Step  4942000 ----- CPU =   2199.9255 (sec) ----------------
Time     = 25710000.000000 Temp     = 310.311570 Press    = 305.379564 
PotEng   = -10.039681 KinEng   = 0.923173 Lx       = 24.768113 
Ly       = 24.768113 Lz       = 24.768113 Density  = 1.008049 
---------------- Step  4943000 ----- CPU =   2200.3680 (sec) ----------------
Time     = 25715000.000000 Temp     = 288.775769 Press    = -203.956208 
PotEng   = -10.108407 KinEng   = 0.859104 Lx       = 24.873880 
Ly       = 24.873880 Lz       = 24.873880 Density  = 0.995245 
---------------- Step  4944000 ----- CPU =   2200.8043 (sec) ----------------
Time     = 25720000.000000 Temp     = 298.454218 Press    = -625.728787 
PotEng   = -10.045341 KinEng   = 0.887898 Lx       = 25.043664 
Ly       = 25.043664 Lz       = 25.043664 Density  = 0.975140 
---------------- Step  4945000 ----- CPU =   2201.2448 (sec) ----------------
Time     = 25725000.000000 Temp     = 303.765698 Press    = -635.832444 
PotEng   = -10.049551 KinEng   = 0.903699 Lx       = 24.927034 
Ly       = 24.927034 Lz       = 24.927034 Density  = 0.988892 
---------------- Step  4946000 ----- CPU =   2201.6884 (sec) ----------------
Time     = 25730000.000000 Temp     = 309.025563 Press    = 102.412871 
PotEng   = -10.034562 KinEng   = 0.919347 Lx       = 24.805727 
Ly       = 24.805727 Lz       = 24.805727 Density  = 1.003471 
---------------- Step  4947000 ----- CPU =   2202.1307 (sec) ----------------
Time     = 25735000.000000 Temp     = 284.216086 Press    = -41.056696 
PotEng   = -10.102301 KinEng   = 0.845539 Lx       = 24.887120 
Ly       = 24.887120 Lz       = 24.887120 Density  = 0.993657 
---------------- Step  4948000 ----- CPU =   2202.5689 (sec) ----------------
Time     = 25740000.000000 Temp     = 304.045412 Press    = 421.881682 
PotEng   = -10.021317 KinEng   = 0.904531 Lx       = 24.894636 
Ly       = 24.894636 Lz       = 24.894636 Density  = 0.992757 
---------------- Step  4949000 ----- CPU =   2203.0149 (sec) ----------------
Time     = 25745000.000000 Temp     = 305.286009 Press    = -203.849272 
PotEng   = -10.029794 KinEng   = 0.908222 Lx       = 24.884777 
Ly       = 24.884777 Lz       = 24.884777 Density  = 0.993938 
---------------- Step  4950000 ----- CPU =   2203.4638 (sec) ----------------
Time     = 25750000.000000 Temp     = 293.207471 Press    = -327.518148 
PotEng   = -9.971173 KinEng   = 0.872289 Lx       = 24.820773 
Ly       = 24.820773 Lz       = 24.820773 Density  = 1.001647 
---------------- Step  4951000 ----- CPU =   2203.9034 (sec) ----------------
Time     = 25755000.000000 Temp     = 298.659434 Press    = 896.753787 
PotEng   = -10.110331 KinEng   = 0.888508 Lx       = 24.849195 
Ly       = 24.849195 Lz       = 24.849195 Density  = 0.998214 
---------------- Step  4952000 ----- CPU =   2204.3440 (sec) ----------------
Time     = 25760000.000000 Temp     = 281.614563 Press    = 89.634847 
PotEng   = -10.049661 KinEng   = 0.837800 Lx       = 24.968761 
Ly       = 24.968761 Lz       = 24.968761 Density  = 0.983942 
---------------- Step  4953000 ----- CPU =   2204.7892 (sec) ----------------
Time     = 25765000.000000 Temp     = 301.849342 Press    = -823.757233 
PotEng   = -10.126828 KinEng   = 0.897998 Lx       = 24.867748 
Ly       = 24.867748 Lz       = 24.867748 Density  = 0.995981 
---------------- Step  4954000 ----- CPU =   2205.2274 (sec) ----------------
Time     = 25770000.000000 Temp     = 316.211916 Press    = -304.613942 
PotEng   = -10.032787 KinEng   = 0.940727 Lx       = 24.900916 
Ly       = 24.900916 Lz       = 24.900916 Density  = 0.992007 
---------------- Step  4955000 ----- CPU =   2205.6699 (sec) ----------------
Time     = 25775000.000000 Temp     = 291.504173 Press    = -539.003165 
PotEng   = -10.033303 KinEng   = 0.867221 Lx       = 24.892879 
Ly       = 24.892879 Lz       = 24.892879 Density  = 0.992968 
---------------- Step  4956000 ----- CPU =   2206.1048 (sec) ----------------
Time     = 25780000.000000 Temp     = 301.381294 Press    = 40.166999 
PotEng   = -10.076590 KinEng   = 0.896606 Lx       = 24.847135 
Ly       = 24.847135 Lz       = 24.847135 Density  = 0.998462 
---------------- Step  4957000 ----- CPU =   2206.5476 (sec) ----------------
Time     = 25785000.000000 Temp     = 295.621669 Press    = -738.192986 
PotEng   = -10.075557 KinEng   = 0.879471 Lx       = 24.830156 
Ly       = 24.830156 Lz       = 24.830156 Density  = 1.000512 
---------------- Step  4958000 ----- CPU =   2206.9918 (sec) ----------------
Time     = 25790000.000000 Temp     = 294.054612 Press    = -298.163195 
PotEng   = -10.044664 KinEng   = 0.874809 Lx       = 24.791315 
Ly       = 24.791315 Lz       = 24.791315 Density  = 1.005222 
---------------- Step  4959000 ----- CPU =   2207.4309 (sec) ----------------
Time     = 25795000.000000 Temp     = 294.737327 Press    = -71.981760 
PotEng   = -10.018585 KinEng   = 0.876840 Lx       = 24.938342 
Ly       = 24.938342 Lz       = 24.938342 Density  = 0.987547 
---------------- Step  4960000 ----- CPU =   2207.8616 (sec) ----------------
Time     = 25800000.000000 Temp     = 304.295443 Press    = 192.538093 
PotEng   = -10.102702 KinEng   = 0.905275 Lx       = 24.830044 
Ly       = 24.830044 Lz       = 24.830044 Density  = 1.000525 
---------------- Step  4961000 ----- CPU =   2208.3055 (sec) ----------------
Time     = 25805000.000000 Temp     = 307.506393 Press    = -791.263276 
PotEng   = -9.992828 KinEng   = 0.914828 Lx       = 24.851260 
Ly       = 24.851260 Lz       = 24.851260 Density  = 0.997965 
---------------- Step  4962000 ----- CPU =   2208.7375 (sec) ----------------
Time     = 25810000.000000 Temp     = 272.594880 Press    = 314.657156 
PotEng   = -10.101240 KinEng   = 0.810967 Lx       = 24.816080 
Ly       = 24.816080 Lz       = 24.816080 Density  = 1.002215 
---------------- Step  4963000 ----- CPU =   2209.1612 (sec) ----------------
Time     = 25815000.000000 Temp     = 319.709103 Press    = -9.499687 
PotEng   = -10.068539 KinEng   = 0.951131 Lx       = 24.824409 
Ly       = 24.824409 Lz       = 24.824409 Density  = 1.001207 
---------------- Step  4964000 ----- CPU =   2209.5978 (sec) ----------------
Time     = 25820000.000000 Temp     = 295.018829 Press    = -710.250618 
PotEng   = -10.038189 KinEng   = 0.877678 Lx       = 24.838402 
Ly       = 24.838402 Lz       = 24.838402 Density  = 0.999516 
---------------- Step  4965000 ----- CPU =   2210.0392 (sec) ----------------
Time     = 25825000.000000 Temp     = 288.449634 Press    = 94.555121 
PotEng   = -10.068258 KinEng   = 0.858134 Lx       = 24.857127 
Ly       = 24.857127 Lz       = 24.857127 Density  = 0.997258 
---------------- Step  4966000 ----- CPU =   2210.4802 (sec) ----------------
Time     = 25830000.000000 Temp     = 320.593560 Press    = 105.948147 
PotEng   = -10.124400 KinEng   = 0.953762 Lx       = 24.802251 
Ly       = 24.802251 Lz       = 24.802251 Density  = 1.003892 
---------------- Step  4967000 ----- CPU =   2210.9166 (sec) ----------------
Time     = 25835000.000000 Temp     = 296.010499 Press    = -1002.423058 
PotEng   = -10.084993 KinEng   = 0.880628 Lx       = 24.855396 
Ly       = 24.855396 Lz       = 24.855396 Density  = 0.997467 
---------------- Step  4968000 ----- CPU =   2211.3553 (sec) ----------------
Time     = 25840000.000000 Temp     = 308.611424 Press    = -114.999274 
PotEng   = -10.085486 KinEng   = 0.918115 Lx       = 24.810059 
Ly       = 24.810059 Lz       = 24.810059 Density  = 1.002945 
---------------- Step  4969000 ----- CPU =   2211.7918 (sec) ----------------
Time     = 25845000.000000 Temp     = 305.024093 Press    = 210.040317 
PotEng   = -10.034081 KinEng   = 0.907443 Lx       = 24.816693 
Ly       = 24.816693 Lz       = 24.816693 Density  = 1.002141 
---------------- Step  4970000 ----- CPU =   2212.2286 (sec) ----------------
Time     = 25850000.000000 Temp     = 279.804188 Press    = -158.033854 
PotEng   = -10.056640 KinEng   = 0.832414 Lx       = 24.844330 
Ly       = 24.844330 Lz       = 24.844330 Density  = 0.998800 
---------------- Step  4971000 ----- CPU =   2212.6703 (sec) ----------------
Time     = 25855000.000000 Temp     = 308.448538 Press    = 46.769850 
PotEng   = -10.091927 KinEng   = 0.917631 Lx       = 24.819973 
Ly       = 24.819973 Lz       = 24.819973 Density  = 1.001744 
---------------- Step  4972000 ----- CPU =   2213.1262 (sec) ----------------
Time     = 25860000.000000 Temp     = 306.939579 Press    = 83.440627 
PotEng   = -10.146169 KinEng   = 0.913142 Lx       = 24.818062 
Ly       = 24.818062 Lz       = 24.818062 Density  = 1.001975 
---------------- Step  4973000 ----- CPU =   2213.5816 (sec) ----------------
Time     = 25865000.000000 Temp     = 288.935033 Press    = 283.142583 
PotEng   = -10.014147 KinEng   = 0.859578 Lx       = 24.830471 
Ly       = 24.830471 Lz       = 24.830471 Density  = 1.000474 
---------------- Step  4974000 ----- CPU =   2214.0202 (sec) ----------------
Time     = 25870000.000000 Temp     = 300.203190 Press    = -25.757134 
PotEng   = -10.049218 KinEng   = 0.893101 Lx       = 24.759242 
Ly       = 24.759242 Lz       = 24.759242 Density  = 1.009133 
---------------- Step  4975000 ----- CPU =   2214.4626 (sec) ----------------
Time     = 25875000.000000 Temp     = 298.070521 Press    = -149.213476 
PotEng   = -10.041215 KinEng   = 0.886756 Lx       = 24.909985 
Ly       = 24.909985 Lz       = 24.909985 Density  = 0.990923 
---------------- Step  4976000 ----- CPU =   2214.8974 (sec) ----------------
Time     = 25880000.000000 Temp     = 293.939277 Press    = 601.815714 
PotEng   = -10.125592 KinEng   = 0.874466 Lx       = 24.814783 
Ly       = 24.814783 Lz       = 24.814783 Density  = 1.002372 
---------------- Step  4977000 ----- CPU =   2215.3305 (sec) ----------------
Time     = 25885000.000000 Temp     = 312.631062 Press    = -62.401757 
PotEng   = -10.064619 KinEng   = 0.930074 Lx       = 24.810396 
Ly       = 24.810396 Lz       = 24.810396 Density  = 1.002904 
---------------- Step  4978000 ----- CPU =   2215.7761 (sec) ----------------
Time     = 25890000.000000 Temp     = 306.847807 Press    = 1483.271006 
PotEng   = -10.144750 KinEng   = 0.912869 Lx       = 24.711859 
Ly       = 24.711859 Lz       = 24.711859 Density  = 1.014949 
---------------- Step  4979000 ----- CPU =   2216.2193 (sec) ----------------
Time     = 25895000.000000 Temp     = 291.278760 Press    = -1467.280309 
PotEng   = -10.059362 KinEng   = 0.866551 Lx       = 25.039918 
Ly       = 25.039918 Lz       = 25.039918 Density  = 0.975578 
---------------- Step  4980000 ----- CPU =   2216.6627 (sec) ----------------
Time     = 25900000.000000 Temp     = 317.881908 Press    = -153.118329 
PotEng   = -10.094957 KinEng   = 0.945695 Lx       = 24.874951 
Ly       = 24.874951 Lz       = 24.874951 Density  = 0.995116 
---------------- Step  4981000 ----- CPU =   2217.1091 (sec) ----------------
Time     = 25905000.000000 Temp     = 288.174044 Press    = 604.570998 
PotEng   = -10.038361 KinEng   = 0.857314 Lx       = 24.812560 
Ly       = 24.812560 Lz       = 24.812560 Density  = 1.002642 
---------------- Step  4982000 ----- CPU =   2217.5575 (sec) ----------------
Time     = 25910000.000000 Temp     = 302.483022 Press    = 378.971984 
PotEng   = -10.063304 KinEng   = 0.899883 Lx       = 24.914586 
Ly       = 24.914586 Lz       = 24.914586 Density  = 0.990375 
---------------- Step  4983000 ----- CPU =   2218.0056 (sec) ----------------
Time     = 25915000.000000 Temp     = 283.384242 Press    = 173.492721 
PotEng   = -10.103755 KinEng   = 0.843065 Lx       = 24.807700 
Ly       = 24.807700 Lz       = 24.807700 Density  = 1.003231 
---------------- Step  4984000 ----- CPU =   2218.4572 (sec) ----------------
Time     = 25920000.000000 Temp     = 297.219253 Press    = -415.072582 
PotEng   = -10.083689 KinEng   = 0.884224 Lx       = 24.760410 
Ly       = 24.760410 Lz       = 24.760410 Density  = 1.008990 
---------------- Step  4985000 ----- CPU =   2218.8968 (sec) ----------------
Time     = 25925000.000000 Temp     = 285.893274 Press    = -496.556127 
PotEng   = -10.070718 KinEng   = 0.850529 Lx       = 24.846238 
Ly       = 24.846238 Lz       = 24.846238 Density  = 0.998570 
---------------- Step  4986000 ----- CPU =   2219.3377 (sec) ----------------
Time     = 25930000.000000 Temp     = 286.037418 Press    = 870.807530 
PotEng   = -10.048262 KinEng   = 0.850958 Lx       = 24.856646 
Ly       = 24.856646 Lz       = 24.856646 Density  = 0.997316 
---------------- Step  4987000 ----- CPU =   2219.7656 (sec) ----------------
Time     = 25935000.000000 Temp     = 297.463244 Press    = -108.131973 
PotEng   = -10.053605 KinEng   = 0.884950 Lx       = 24.932233 
Ly       = 24.932233 Lz       = 24.932233 Density  = 0.988273 
---------------- Step  4988000 ----- CPU =   2220.2045 (sec) ----------------
Time     = 25940000.000000 Temp     = 308.702875 Press    = 902.005848 
PotEng   = -10.074954 KinEng   = 0.918387 Lx       = 24.715634 
Ly       = 24.715634 Lz       = 24.715634 Density  = 1.014484 
---------------- Step  4989000 ----- CPU =   2220.6442 (sec) ----------------
Time     = 25945000.000000 Temp     = 292.639442 Press    = -520.713775 
PotEng   = -10.108423 KinEng   = 0.870599 Lx       = 24.896414 
Ly       = 24.896414 Lz       = 24.896414 Density  = 0.992545 
---------------- Step  4990000 ----- CPU =   2221.0869 (sec) ----------------
Time     = 25950000.000000 Temp     = 302.156366 Press    = -310.506664 
PotEng   = -10.098218 KinEng   = 0.898912 Lx       = 24.946639 
Ly       = 24.946639 Lz       = 24.946639 Density  = 0.986562 
---------------- Step  4991000 ----- CPU =   2221.5321 (sec) ----------------
Time     = 25955000.000000 Temp     = 304.936253 Press    = 988.003569 
PotEng   = -10.014999 KinEng   = 0.907182 Lx       = 24.827128 
Ly       = 24.827128 Lz       = 24.827128 Density  = 1.000878 
---------------- Step  4992000 ----- CPU =   2221.9739 (sec) ----------------
Time     = 25960000.000000 Temp     = 288.991750 Press    = 124.207139 
PotEng   = -10.097924 KinEng   = 0.859747 Lx       = 24.896620 
Ly       = 24.896620 Lz       = 24.896620 Density  = 0.992520 
---------------- Step  4993000 ----- CPU =   2222.4187 (sec) ----------------
Time     = 25965000.000000 Temp     = 291.497826 Press    = 50.954124 
PotEng   = -10.140509 KinEng   = 0.867203 Lx       = 24.877634 
Ly       = 24.877634 Lz       = 24.877634 Density  = 0.994794 
---------------- Step  4994000 ----- CPU =   2222.8682 (sec) ----------------
Time     = 25970000.000000 Temp     = 309.746676 Press    = 493.876782 
PotEng   = -10.198636 KinEng   = 0.921493 Lx       = 24.859713 
Ly       = 24.859713 Lz       = 24.859713 Density  = 0.996947 
---------------- Step  4995000 ----- CPU =   2223.3194 (sec) ----------------
Time     = 25975000.000000 Temp     = 315.753530 Press    = 1316.293714 
PotEng   = -10.042702 KinEng   = 0.939363 Lx       = 24.783162 
Ly       = 24.783162 Lz       = 24.783162 Density  = 1.006214 
---------------- Step  4996000 ----- CPU =   2223.7512 (sec) ----------------
Time     = 25980000.000000 Temp     = 298.496585 Press    = 410.589189 
PotEng   = -10.084664 KinEng   = 0.888024 Lx       = 24.897538 
Ly       = 24.897538 Lz       = 24.897538 Density  = 0.992410 
---------------- Step  4997000 ----- CPU =   2224.1957 (sec) ----------------
Time     = 25985000.000000 Temp     = 293.958757 Press    = -982.149903 
PotEng   = -10.150676 KinEng   = 0.874524 Lx       = 24.807256 
Ly       = 24.807256 Lz       = 24.807256 Density  = 1.003285 
---------------- Step  4998000 ----- CPU =   2224.6305 (sec) ----------------
Time     = 25990000.000000 Temp     = 294.223605 Press    = -721.089911 
PotEng   = -10.041177 KinEng   = 0.875312 Lx       = 24.858036 
Ly       = 24.858036 Lz       = 24.858036 Density  = 0.997149 
---------------- Step  4999000 ----- CPU =   2225.0731 (sec) ----------------
Time     = 25995000.000000 Temp     = 315.899348 Press    = 372.840741 
PotEng   = -10.110042 KinEng   = 0.939797 Lx       = 24.771944 
Ly       = 24.771944 Lz       = 24.771944 Density  = 1.007582 
---------------- Step  5000000 ----- CPU =   2225.5070 (sec) ----------------
Time     = 26000000.000000 Temp     = 314.996693 Press    = 216.901823 
PotEng   = -10.151056 KinEng   = 0.937111 Lx       = 24.833414 
Ly       = 24.833414 Lz       = 24.833414 Density  = 1.000118 
Loop time of 2225.51 on 8 procs for 5000000 steps with 512 atoms

Performance: 970.565 ns/day, 0.025 hours/ns, 2246.679 timesteps/s
96.2% CPU use with 8 MPI tasks x no OpenMP threads

MPI task timing breakdown:
Section |  min time  |  avg time  |  max time  |%varavg| %total
---------------------------------------------------------------
Pair    | 1737.7     | 1781       | 1827.9     |  69.6 | 80.03
Neigh   | 45.397     | 46.436     | 47.263     |   9.3 |  2.09
Comm    | 278.6      | 327.76     | 373.29     | 166.3 | 14.73
Output  | 6.5036     | 6.5466     | 6.8395     |   4.3 |  0.29
Modify  | 49.56      | 51.936     | 53.228     |  15.5 |  2.33
Other   |            | 11.79      |            |       |  0.53

Nlocal:    64 ave 66 max 62 min
Histogram: 1 0 3 0 0 1 0 1 0 2
Nghost:    458 ave 463 max 454 min
Histogram: 1 0 1 3 0 1 0 1 0 1
Neighs:    0 ave 0 max 0 min
Histogram: 8 0 0 0 0 0 0 0 0 0
FullNghs:  2152.25 ave 2230 max 2080 min
Histogram: 1 1 1 0 2 0 0 1 0 2

Total # of neighbors = 17218
Ave neighs/atom = 33.6289
Neighbor list builds = 330354
Dangerous builds = 0
System init for write_data ...
Total wall time: 0:38:34
