LAMMPS data file via write_data, version 4 Jan 2019, timestep = 4000000

512 atoms
1 atom types

1.6735031686386748e-01 2.4667649683137611e+01 xlo xhi
1.6735031686386748e-01 2.4667649683137611e+01 ylo yhi
1.6735031686386748e-01 2.4667649683137611e+01 zlo zhi

Masses

1 18.0153

Atoms # atomic

394 1 7.3878690453338409e+00 1.0757534402591313e+01 1.5961311893599091e+00 -107 4 -18
511 1 1.1304193073175494e+01 8.2819195667771801e+00 7.7266187077336870e+00 48 7 106
342 1 1.3066962616500493e+00 2.3361412393849124e+00 5.4744488525746582e-01 31 -1 9
14 1 6.2788623039208318e+00 7.4394443495553491e+00 3.6321692716853127e+00 45 -25 34
303 1 1.3199580393455477e+01 9.5115473089170752e+00 3.0655334148231597e+00 25 -10 205
164 1 2.1610804734594478e+01 3.2651372624312358e-01 2.0043008723067972e+00 58 25 144
424 1 1.6115346175545490e+01 9.7429369012995508e+00 3.3072363890453595e+00 43 3 -11
388 1 1.9157851965120116e+01 5.6046197767405497e+00 8.0326235083894026e+00 64 -6 38
452 1 2.2411391879726622e+01 9.9690860361498608e+00 5.4958399558941240e+00 5 -3 85
21 1 1.0127747910791840e+01 2.1377832319946259e+00 5.8054619617521119e+00 17 2 -121
320 1 1.5464621649774177e+01 6.0518310754853681e+00 4.6757955315728585e+00 23 88 40
439 1 2.7604841760481444e+00 9.8797297814874145e+00 3.0907375681468534e+00 28 -44 -66
364 1 2.4519682723132625e+01 5.2400316202823660e+00 3.2728612186985586e+00 108 18 -7
249 1 1.7737208297123445e+01 5.6703352608300515e+00 1.4043372064050790e+00 -72 -45 -32
469 1 2.0893185412773278e+01 1.1383164798854803e+01 1.7838160977828565e+00 38 15 28
445 1 8.7552904792953399e+00 3.9336901570451328e+00 7.4564754253573220e+00 121 69 9
265 1 1.2903445523721949e+01 6.9848120401909437e+00 3.5571290445260511e+00 -81 -54 57
3 1 4.5211154277468983e+00 1.0290376109847944e+01 6.8214346404129085e+00 9 58 28
348 1 1.3455197816707798e+00 7.4710557540089102e+00 2.8440432102655304e+00 -10 -16 14
70 1 1.6797585662058864e+01 1.4855309831976620e+00 7.9108634623993090e-01 94 -6 14
305 1 1.7353337479235854e+01 3.8183292204468389e+00 5.1942737290450083e+00 19 98 31
166 1 1.5775698223753984e+01 4.2865391561847801e+00 3.9537920750453104e-01 36 -11 -28
506 1 6.5097832883901030e-01 3.3990242048472086e-01 2.8308647648243532e+00 -15 -17 0
118 1 1.3002378736784872e+01 1.7412577211584428e+00 3.3512924836143010e+00 -25 134 -79
478 1 6.9444165619240861e-01 2.9939442199835558e+00 8.0121214362563062e+00 31 -5 36
19 1 2.3452678473835153e+01 2.5053800394567802e+00 2.4475556174803894e+00 8 45 75
84 1 3.9832560630489509e+00 8.2410657295199830e+00 5.0530842337949515e+00 36 58 33
411 1 5.1385537141755186e+00 8.5337227792102754e-01 2.3097869059388029e-01 21 115 156
165 1 2.3280136955474180e+01 1.2091035458310705e+01 3.7535975913301844e+00 88 -9 95
414 1 4.7759542109668365e+00 9.7451370559637134e+00 1.0455243424722043e+00 102 6 65
359 1 2.2758791286415754e+01 3.8065896503890193e+00 6.8344685770095319e+00 -39 46 1
99 1 1.6533594998724979e+01 1.1260726520336959e+00 4.8452876047332651e+00 -4 -12 34
247 1 1.4331749247863199e+01 6.6563460775574770e+00 8.5278575846851379e-01 19 -23 9
482 1 8.6007546803649078e+00 1.2326487934588268e+01 5.7118506755315179e+00 11 64 42
289 1 9.1020748935360096e+00 4.4318516165296939e+00 4.6207512156492276e+00 -23 -12 -57
465 1 7.1454009037382404e-01 7.7960773389410392e+00 5.9700157067075459e+00 29 40 47
86 1 1.0157604899954338e+01 1.0120679622021010e+01 5.7642448062269125e+00 -32 -61 91
130 1 5.3375059170719092e+00 3.4312784491565278e+00 3.0497044301647485e+00 -20 -36 8
409 1 1.3663846395252024e+01 4.4891055890870231e+00 6.3011872174781232e+00 -54 79 71
333 1 2.4008624455161489e+00 7.1969274786592203e+00 7.9455881300960884e+00 19 44 31
92 1 1.9433078324577107e+01 6.7731541652346330e+00 5.4480993406982359e+00 -50 54 -107
142 1 2.2795664811006557e+01 6.4494164731744954e+00 5.4734981877470128e+00 15 19 55
430 1 2.1419951655087981e+01 2.9434089699742976e+00 4.3822895373051844e+00 55 48 5
328 1 4.4077852231010317e-01 4.9414745962167155e+00 5.1767514928113978e-01 73 78 -14
232 1 7.0400568993198940e+00 6.9212767187695574e+00 7.3785423008786895e+00 96 41 26
231 1 1.7097726587517755e+01 8.3334087778218375e+00 5.8598092101041681e+00 -43 4 32
120 1 8.2143529150914265e+00 9.0382563261982281e+00 4.0671039945167609e+00 1 -70 77
426 1 1.6372043996109230e+01 1.2374096225040375e+01 1.8355903295145428e+00 79 -4 56
410 1 1.7413543254557009e+01 3.2028947894611415e+00 8.0253710529176452e+00 25 132 7
33 1 1.6763514009032647e+01 8.1701690934599043e+00 9.8212889735923969e-01 -98 -38 -19
431 1 1.9226226531031219e+01 1.0062369992240475e+01 3.8185789771759024e+00 -71 -30 -36
25 1 1.9723645270584811e+01 1.8584947385827446e+00 4.8144458646214716e-01 48 -85 -57
203 1 2.9341597951345761e+00 6.3720623760530373e+00 6.6298017451944480e-01 117 -117 77
193 1 6.6107697858296630e+00 5.0611785971770455e+00 5.2981462129504759e+00 -67 18 -13
433 1 3.7749626980207323e+00 5.5454221371086128e+00 6.2169823261789441e+00 13 -54 -46
38 1 1.1751869474453466e+01 1.1768347009499955e+01 3.9031831811537141e+00 -18 54 -23
162 1 9.7864376582795813e+00 5.4916289033640835e+00 8.9599511956769196e-01 -42 4 4
392 1 1.2733359711333756e+01 2.0422559816997548e+00 6.8903153213270185e+00 13 14 -54
284 1 5.0207295005526191e+00 1.1243859573477586e+00 4.8365835077000225e+00 -79 -62 -7
337 1 1.1366069707194072e+01 6.3529345277551768e+00 5.6623573899740158e+00 28 13 -46
358 1 2.1439963268355758e+01 8.2131023800035017e+00 3.8016239615429974e+00 -29 87 42
353 1 1.1179246787958498e+01 2.9490507948641089e+00 1.3920601722933812e+00 -166 73 92
24 1 1.9154924723892934e+00 3.8420836035688724e+00 5.0289719799679311e+00 33 -59 69
385 1 9.8834751500073939e+00 6.7947773392563846e+00 3.4112995027730717e+00 53 21 53
503 1 4.4902999030725910e-01 1.1852445408050494e+01 1.3224341369411183e+00 -18 0 23
242 1 6.9045250696148726e+00 5.4375757389542976e+00 1.6711366492251940e+00 11 1 -51
39 1 2.4482577667900230e+01 9.2442636277010468e+00 8.9587341444235946e-01 7 40 45
202 1 2.1117991729171539e+01 9.6455805787325377e-01 6.4146808658307295e+00 22 89 -26
199 1 1.9278612598295393e+01 4.8433136767868588e+00 3.5758686337249546e+00 19 71 -26
287 1 8.0033639339000651e+00 1.1781868695077335e+00 8.0154093962280015e+00 -14 -8 -5
136 1 1.5377229331292201e+01 3.0449615368457641e+00 2.9657381066730357e+00 38 -71 114
266 1 1.8334468846338307e+01 7.9224167547787028e-01 6.9103987636185220e+00 30 -63 16
68 1 7.0064654530361885e+00 9.8046109388893701e+00 6.4271730923171910e+00 3 -26 16
454 1 2.1585727697641776e+01 8.8182462110419788e+00 9.4078033683923667e-01 -49 53 9
161 1 1.6261975731815536e+01 1.1044716843693928e+01 6.3973731076997504e+00 29 -34 44
339 1 2.3255340068032115e+00 1.1171178735709586e+00 5.0875618739910395e+00 29 44 0
80 1 5.9113842856440142e+00 2.7122984012440052e+00 6.8973024463197570e+00 21 54 6
498 1 2.0019437718563960e+01 1.0630584551559362e+01 6.7345846586624569e+00 38 14 3
122 1 8.3066518077670040e+00 2.8959427694580140e+00 2.4206231444235815e+00 3 17 12
262 1 1.3570455894417240e+01 9.5522899195499562e+00 2.9757556967804177e-01 -8 52 -38
408 1 4.0355907120608521e+00 3.8119157756969848e+00 2.8037990576541461e-01 -148 34 58
82 1 1.7785222299043447e+01 9.5169902578777759e+00 1.2661160302373251e+01 -6 -4 -1
45 1 1.6465658663813958e+01 3.3784383042871906e+00 1.2825283930834878e+01 1 80 -78
183 1 1.9052209369369947e+01 4.7767562272236876e+00 1.2402492010565693e+01 28 95 14
97 1 1.1342172985961485e+01 5.1199324825016506e+00 1.4385462718512811e+01 25 59 -9
375 1 2.3442120185894275e+01 9.1956210721173335e+00 1.0233463756595540e+01 4 50 -121
57 1 1.2681478761023302e+01 8.9184222168294358e-01 9.5203372884931898e+00 -25 -4 30
150 1 1.0485323774270384e+01 1.0645405394294437e+01 9.1454715703080609e+00 74 -31 68
494 1 2.7523584064873257e+00 1.0525913875032142e+00 1.1346561256775134e+01 -5 56 -87
259 1 1.1796604386061453e+01 1.1150608062584713e+01 1.4838291181252231e+01 -3 53 36
257 1 2.0491325697788810e+01 2.4320351406359841e+00 1.3595353394962027e+01 -24 10 54
210 1 6.7455778333375145e+00 3.7003602164023364e+00 1.0224265286239918e+01 -10 -2 39
239 1 7.3358199806148141e+00 1.1170124461792035e+01 1.2806977495778055e+01 34 -27 8
350 1 2.0329425539825731e+01 6.3666364498050605e+00 1.0560133583581077e+01 25 7 45
282 1 5.5482366739734674e+00 1.5678659636622276e+00 1.4889035695106799e+01 34 26 70
13 1 4.6378890914307060e+00 7.1401053995950230e+00 1.5381840762100582e+01 133 -12 75
29 1 1.8072762450393050e+01 2.2980306676778564e+00 1.5176802252894882e+01 62 -34 -32
294 1 1.1869006585805371e+00 9.4159401394431779e+00 1.4371724290461728e+01 34 41 -86
270 1 2.1012837621466030e+01 1.1934864002885593e+01 1.5119459802529683e+01 19 133 101
234 1 2.3622522761208312e+01 1.0809071908943357e+01 1.5798387548256031e+01 70 -17 26
124 1 2.1178859536870970e+01 6.6117338520273228e-01 9.6086608752241247e+00 -58 162 -32
72 1 1.1065402338053360e+01 7.3458513506887169e+00 1.6290633163988844e+01 23 65 46
132 1 8.3411469561103484e+00 7.6629308046367788e+00 1.1046576086410882e+01 -40 1 -70
487 1 1.7738129592148155e-01 4.5623128724065820e+00 1.2438609665852672e+01 22 42 -14
304 1 1.5168208920348160e+01 9.8159961915404406e+00 1.1880165425977131e+01 -30 -51 121
223 1 1.4557071383260700e+01 5.4482261801251104e+00 9.0265268167788371e+00 99 35 5
403 1 2.0105739856056317e+00 1.0574545050713818e+01 1.2015421070872645e+01 -64 48 16
318 1 1.4503558959827025e+01 1.1330862080204911e+01 1.4245675129676288e+01 35 0 154
41 1 2.2511188976831743e+01 4.6015686428133042e+00 9.5888683969296924e+00 69 -5 36
90 1 1.4000336075235589e+01 4.6650683023884341e+00 1.3564492862964352e+01 -52 -41 -71
263 1 9.7672952821905898e+00 1.0018178324960958e+01 1.1830672006374966e+01 22 136 11
472 1 9.5706889436265232e+00 6.3573002749226122e+00 8.7914857053363811e+00 35 -27 57
306 1 1.1940138525439995e+01 4.9134069139189931e+00 9.8805826424008298e+00 -5 64 -72
313 1 2.7670109136909100e+00 3.8020469574923434e+00 1.0671686676005931e+01 -48 37 31
269 1 1.8742701307803841e+01 7.7484593070933387e+00 1.4580607437250892e+01 19 -38 1
253 1 1.3561831398725470e+00 7.9087947198288742e+00 1.1501966261066602e+01 1 19 -6
406 1 7.3189369917873677e+00 5.9069947417124995e+00 1.4830984742805462e+01 49 146 9
230 1 2.2468452488549186e+01 2.5849660895748761e+00 1.1436276933683274e+01 -1 -31 -133
314 1 1.3731605039476511e+01 8.1496652130745098e+00 9.7028242656649972e+00 -14 24 -5
209 1 1.3156033492440580e+01 2.2882343613828504e+00 1.1963892462361096e+01 3 10 -42
108 1 1.8006044177393562e+01 1.2065375330342475e+01 1.4206496261896577e+01 46 -34 39
512 1 1.1386228524204272e+01 8.6179926720162552e+00 1.3879685940489216e+01 -21 -27 88
316 1 1.3488933119298117e+01 7.3594119454820364e+00 1.2502252835355200e+01 34 114 79
204 1 4.4869483894522748e+00 4.2665621389332138e+00 8.6853662066423034e+00 17 -22 -183
272 1 2.3531046009400363e+01 3.3554679765715418e+00 1.5071802330785410e+01 -22 7 112
4 1 9.1553469905715517e+00 4.0973008628191874e+00 1.1711438715716152e+01 19 -69 11
55 1 1.9209689541298385e+01 1.1492193221331744e+01 9.8820736881790001e+00 23 65 -14
76 1 2.4422731654882838e+01 6.7786214453393665e+00 1.3860355656306155e+01 22 32 15
36 1 1.5622240079109682e+01 3.1859219261875080e+00 1.0310866562667695e+01 104 60 117
309 1 2.1882569572134830e+01 9.6994288739767534e+00 1.2576073781965967e+01 61 62 -49
182 1 7.8976909078112492e+00 1.1251049247758980e+01 8.7750593234501810e+00 120 52 45
158 1 1.6920637256664751e+01 6.9374873869290008e+00 8.4562889234465963e+00 -62 58 -85
143 1 2.2191645214992850e+01 5.8634222680325676e+00 1.5324843879017449e+01 41 -4 0
381 1 2.1429546541397670e+01 8.7553980003522103e+00 1.5340951681202249e+01 21 -108 31
121 1 2.3292997782060043e+00 5.4863992412933067e+00 1.4280123802240217e+01 -8 7 7
87 1 5.3884828692660696e+00 9.6438467229103502e+00 1.4473216251827585e+01 -9 38 72
197 1 1.9283622306592738e-01 1.5550269702714126e+00 1.3228892295157777e+01 5 41 48
224 1 1.8623816002823695e+01 8.5006799147616192e+00 1.0229911941010579e+01 54 -94 8
393 1 3.0158269468470649e+00 2.6332402735764271e+00 1.4099022322057273e+01 87 30 -83
153 1 6.8145524239949022e+00 5.6459674225942038e+00 1.2023388948608305e+01 7 -21 85
474 1 1.5661488173393078e+01 4.1441233801347249e-01 1.6406989615109552e+01 -7 -61 -27
484 1 9.2677042333511519e+00 1.6956513167287499e+00 1.6230640956565068e+01 -44 -22 87
250 1 7.9397866384225668e-01 5.4334070021222383e+00 9.4602690189048957e+00 -1 10 162
252 1 3.4786543483116157e+00 9.8240790058720098e+00 9.5501465155063574e+00 -53 -94 1
129 1 9.8652210760850920e+00 2.6397216326624311e+00 1.3874889021192901e+01 -40 -37 -86
66 1 3.1773916983730546e+00 1.1203306444665706e+01 1.5195804755323236e+01 -26 36 -30
336 1 3.7132776017719533e+00 6.1813518811873616e+00 1.2056275491942694e+01 38 -16 -131
499 1 1.0306338460962040e+01 2.7497312337272035e+00 9.3708867503994071e+00 35 -31 -76
389 1 1.1366337550324351e+01 3.7061027061175589e-01 1.3229731814223920e+01 7 72 -16
139 1 5.5074680010804433e-01 7.1679122853730026e-01 9.3191812422523128e+00 -7 0 -19
155 1 2.4461484515921939e+00 1.2150851150260843e+01 8.7424104020133377e+00 -48 32 27
31 1 1.0990222374993406e+01 6.5176140158375722e+00 1.2006192165024885e+01 -49 -16 119
347 1 1.5119689202728532e+01 9.0829234697780048e-01 1.3605434729375437e+01 -130 -11 -5
98 1 2.4168624912709657e+01 1.1722183406479800e+01 1.0794334246272138e+01 70 78 -2
468 1 1.2683053477772274e+01 9.6310541124639881e-01 1.5536646963879802e+01 63 12 -46
340 1 6.3168589083597118e+00 9.5217984412326810e+00 1.0347173106360639e+01 44 41 24
111 1 2.0298861042360567e+01 3.1652353753896252e+00 8.3620515611666804e+00 6 51 85
504 1 1.6676679607202072e+01 5.5201438877151165e+00 1.4666870821308368e+01 -40 -31 44
160 1 1.9011810680711648e+01 1.0087535425696348e+01 1.6479894493053834e+01 -24 46 48
441 1 1.5038452305989034e+01 1.0483543662073847e+01 9.0876477103710442e+00 7 -61 -19
497 1 1.9396696622462915e+01 4.7674302459149498e+00 1.5435382815444902e+01 0 28 27
154 1 7.5784992235940720e+00 9.8684578728167416e-01 1.1012907848438477e+01 102 -28 0
258 1 2.0208040030895489e+01 1.1935434989232343e+01 1.2492566741583380e+01 124 -53 69
383 1 4.6683727188462640e+00 7.0217651655615319e+00 9.4120308082444311e+00 -47 87 -26
95 1 1.4689979214468352e+01 4.3549085669913570e+00 1.6480474385900337e+01 61 123 -1
374 1 2.3275050293471459e+01 7.1879988350496511e+00 8.3753495865946483e+00 -15 32 -6
18 1 1.1890186363869429e+01 7.2884764413808130e+00 1.9111717787928274e+01 56 55 38
275 1 1.7400514776443647e+01 1.1331208330094260e+01 2.0305625719829312e+01 26 -12 27
360 1 1.1308667141324211e+01 1.6222707357035018e+00 2.2150370374621282e+01 -96 -41 68
354 1 2.3503121809047325e+01 8.6736742867454399e+00 2.1845248355691130e+01 6 53 14
8 1 2.2153799266519942e+00 9.1190068501022452e+00 1.7164305215976068e+01 -26 18 -28
298 1 1.2193097542274296e+01 9.8649266236977269e+00 1.7180053734350402e+01 -3 48 6
102 1 1.7139378877524731e+01 8.2005139938581610e+00 2.2934604940104386e+01 23 -16 25
464 1 2.3767834959300888e+01 3.8050099764472063e+00 1.8184228450800951e+01 15 20 -23
212 1 2.7787491085989031e+00 1.0625530020774816e+00 2.3376406884063808e+01 -16 -45 -38
79 1 2.3742279853267263e+01 1.5727928692071105e+00 2.3155729163599748e+01 -4 -93 103
189 1 1.4395102009509863e+01 9.0891185242946326e-01 2.4258538454505302e+01 115 -45 -27
5 1 4.4080503355368545e+00 7.6638667951712094e+00 1.8409217627118355e+01 45 42 -6
401 1 2.0000875795636851e+01 3.5262230826845686e-01 2.0061388183208983e+01 33 13 13
271 1 1.8336084239841281e+01 5.7519343487196348e+00 2.1501360999011720e+01 41 34 -46
28 1 2.9491165492912086e-01 8.4066997235484386e+00 1.9218460183063183e+01 26 30 23
365 1 1.8588731516776086e+01 1.0447056992396252e+01 2.2503288345240815e+01 -8 75 -33
141 1 8.3778690815218351e+00 7.6777995490229376e+00 1.6754412907653311e+01 93 73 -18
423 1 1.9569671711850525e+01 4.7017773690319933e+00 2.4030120739674192e+01 -14 6 62
334 1 2.4811035808430043e-01 1.1057448401856835e+01 1.8054123959197508e+01 47 69 12
113 1 1.5805365847250053e+01 9.0506558234812651e-01 1.9315850762681034e+01 -42 24 85
366 1 1.5512099547283286e+01 3.3957713244256147e+00 1.8775893543103638e+01 160 -2 -42
67 1 1.8351375979607756e+01 3.3890930452682970e+00 1.8066970831152300e+01 -23 -79 -29
404 1 2.2624821934896051e+01 6.3182719386433650e-01 2.0714246785558373e+01 -25 128 49
146 1 5.6327653938485209e+00 4.1293547758664664e+00 2.2376771838681314e+01 -7 -5 2
260 1 7.1505790868620691e+00 1.0584853268542616e+01 2.2278669549445372e+01 -25 -3 58
300 1 7.5226296640896528e+00 1.0000907345204395e+01 1.9519588914206221e+01 -82 66 29
412 1 7.8847864522657272e+00 8.7067525575604208e+00 2.3921390911502762e+01 -26 26 -68
428 1 4.5921617093777654e+00 1.0336891575304602e+01 2.1178027426935202e+01 57 -11 -7
127 1 7.8680379469029900e+00 3.1631617790540592e+00 1.8712543931522990e+01 47 69 73
483 1 1.1899249499694596e+01 3.2522928679730869e+00 2.0163740761278202e+01 42 58 13
489 1 1.4562160091311597e+01 8.0007267764980057e+00 2.1771000212713862e+01 76 194 -43
451 1 4.2752391886467533e-01 6.8264366994497614e+00 1.6743211358403222e+01 69 40 -17
226 1 1.3013502042550900e+01 3.2404175554609393e+00 2.3669467706041161e+01 3 4 -4
302 1 2.1220486824084283e+01 1.0111880732469075e+01 2.2950544138890038e+01 37 -71 -39
335 1 1.7797313529864009e+01 1.0641455120779078e+00 2.2919288511683998e+01 14 -23 91
219 1 7.3757831835964076e+00 6.2655050279810212e+00 2.1875315081216122e+01 -29 -18 -110
349 1 9.2556704324644592e+00 1.1327446206927792e+01 2.3984257830715364e+01 -3 20 47
500 1 3.7670391995018018e+00 9.9066509960020388e-01 1.9342243865592106e+01 71 -72 57
371 1 1.9217826651906499e+01 2.9958769898566660e+00 2.0925097927634837e+01 -83 34 -62
1 1 1.8374914115592826e+01 6.2123926470953634e+00 1.8623966503108210e+01 -49 -39 59
168 1 1.9818756903574595e+01 8.5048303945356256e+00 1.8487171771539959e+01 98 -55 -62
256 1 1.0005244186410000e+01 6.9247799126022089e+00 2.3011282629135597e+01 40 24 -39
201 1 2.1490134112741114e+01 4.9890660394256150e+00 2.1617872249601291e+01 -104 -48 35
185 1 1.0244858876019048e+01 4.9362982980722885e+00 1.8995826648331022e+01 4 16 -15
89 1 1.6461265527827802e+01 3.5686652445928404e+00 2.2295429948309419e+01 -9 8 -191
2 1 2.2525834700405717e+01 7.0565005629608635e+00 1.7980526368251052e+01 -43 9 -7
78 1 1.4235844642979844e+01 6.5551191639827904e+00 1.9552219609594633e+01 -11 -61 -19
49 1 1.4217755342081144e+01 4.2309795953245590e+00 2.1053217132886410e+01 -7 25 -29
268 1 1.6068531193453552e+01 6.8084841656495270e+00 1.7254680841944328e+01 -125 6 -10
40 1 2.3212280753976124e+01 1.1939299384530089e+00 1.6963038523020533e+01 -8 42 62
103 1 1.2653130896598848e+01 6.2558579234913916e+00 2.3319910390191946e+01 -22 40 -49
286 1 4.0530427845886621e+00 4.7483184840544554e+00 1.8161597407936281e+01 48 -19 10
322 1 5.2575123350993467e+00 3.1812046614720537e+00 1.9903541864657527e+01 13 46 -5
396 1 4.1414637644862005e+00 1.0725143018466914e+01 1.8447657433213557e+01 3 -1 16
277 1 2.3926504424358470e+01 6.0829081252934829e+00 2.2320641942105560e+01 38 7 109
444 1 9.7372290042558749e+00 1.1804275573741046e+01 1.6566035535639521e+01 -7 -36 16
177 1 1.5563325284050753e+00 1.8042317956210316e+00 2.0835215868194833e+01 -27 -39 50
50 1 6.6261004400417223e-01 4.3422375650943410e+00 2.0414184848252471e+01 14 23 -46
91 1 2.2610753693614480e+00 1.3790254891064126e+00 1.7126028675238135e+01 -20 12 29
397 1 7.1435504767347595e+00 6.8652663065722175e+00 1.9286189925467326e+01 -51 50 -42
281 1 1.1976251893645649e+01 3.5977922082190110e+00 1.6768661836249283e+01 36 -34 105
236 1 2.1251888682453714e+01 4.4896522760586723e+00 1.8796390413973480e+01 39 79 73
233 1 5.5303968441739642e+00 7.3300797330768432e+00 2.4406326285864559e+01 -13 -24 -36
178 1 2.4546093349061673e+00 6.5689384786638358e+00 2.0044054124008284e+01 74 28 -57
140 1 1.1579092967420273e+01 1.1143523933740251e+00 1.8140185106526786e+01 -64 29 -7
240 1 1.1364115107177591e+01 9.5038964429393253e+00 2.3256841421330503e+01 -222 133 60
47 1 1.4807707113383302e+01 9.1324896211204525e+00 1.7011777542924790e+01 19 57 -101
26 1 2.2710496090135106e+01 1.2397215781473426e+01 2.4158643956714482e+01 -18 20 65
85 1 2.2228149959835253e+01 3.7522077304195269e+00 2.4475610850873203e+01 17 41 -105
83 1 1.2673196261449826e+00 9.9046528678731178e+00 2.3022612214219102e+01 39 6 5
390 1 2.1555824415549782e+01 9.9172172803874332e+00 2.0043339820784958e+01 -26 -27 -25
62 1 1.0075243759254322e+01 1.0893617288236593e+01 1.9386844661698394e+01 85 -30 -55
32 1 1.4675059800477397e+01 1.0145381031452308e+01 1.9752013542099270e+01 -65 111 -46
416 1 7.6575983250211470e+00 1.7843345037787510e+00 2.1305028365992385e+01 -8 -32 18
151 1 4.5497983966535047e+00 7.4516752264364357e+00 2.1554545209848577e+01 -42 -42 -13
297 1 8.9646510019024657e+00 3.7712903296667077e-01 1.9413958251624553e+01 9 30 -14
324 1 1.2072011545881804e+01 9.4290833364050748e+00 2.0668743820512812e+01 3 -51 81
280 1 2.0234713543316305e+00 7.1340777524778440e+00 2.2755509444664032e+01 14 -47 158
395 1 6.4328867283073725e+00 3.7572074873442762e+00 1.6508461289625998e+01 -26 49 -57
372 1 1.3330862269024541e+01 1.2342810370077572e+01 2.4231641927802976e+01 16 -5 22
384 1 9.8063680304330099e+00 1.1256099923219092e+00 2.4329204285421127e+01 -1 12 4
481 1 7.7161433909952484e+00 3.1243763375902920e+00 2.3961630206923186e+01 32 -14 -18
448 1 2.0519846531061170e+01 1.1264226047564894e+00 1.6525456422802097e+01 11 -35 -15
437 1 1.5971171124339691e+00 3.9882503246204171e+00 1.6680188716898989e+01 13 4 -120
363 1 3.0410116106864025e+00 1.1740119692188848e+01 2.4573306468801277e+01 -23 -44 15
308 1 7.3855480104640145e+00 1.0385432556183815e+01 1.6568614254162451e+01 52 96 63
278 1 1.6103197705406366e+01 1.1806443122708114e+01 1.6555714828162635e+01 -85 -87 56
466 1 6.3794301406381215e-01 1.5727768473395304e+01 7.4946213920629989e-01 108 -35 -26
46 1 5.3452628842745336e+00 2.0959728000471799e+01 3.6811753494958932e+00 39 -13 64
486 1 8.2031416273302220e+00 1.4848601296960860e+01 4.4483345026977172e-01 43 20 -13
248 1 1.9197633158861132e+00 2.1305174745612089e+01 2.0916947675306972e+00 -34 37 -3
459 1 2.8375798090685365e+00 2.3771830090644656e+01 1.5882605897106667e+00 58 -16 45
456 1 2.2870630059234124e+01 1.9764709077768103e+01 5.7930188310243869e-01 -35 -40 13
206 1 7.7360214755752583e+00 2.4519541316365913e+01 1.6822891878620712e+00 20 -90 36
100 1 6.0196746414484288e+00 1.8659887803632575e+01 2.0076410098843298e+00 50 -127 -24
400 1 1.1730576475190238e+01 1.7399139849253391e+01 2.2849986835093912e+00 61 23 -25
509 1 2.2042423278212098e+01 2.3344375832550931e+01 4.7645593440967247e+00 117 45 -75
368 1 5.5829423499241217e+00 2.3368085013320918e+01 6.3050361406970836e+00 51 -36 41
425 1 1.7521120933824154e+01 2.3706765664294959e+01 2.1642085219914589e+00 65 33 -3
427 1 1.0183599924156596e+01 1.5071357942367653e+01 2.6946396396566636e+00 126 -14 23
244 1 1.5054853067389914e+01 1.7638050191150036e+01 6.2505897244809772e+00 -29 65 1
205 1 1.1777921954010981e+01 2.3130133421129113e+01 4.1356158354127910e+00 -38 -17 -59
367 1 9.2748750000592857e+00 1.7598854385678919e+01 9.1599579734769720e-01 -3 -2 66
455 1 2.1006248148391227e-01 2.2196826910235462e+01 4.4540551803146258e+00 49 96 26
181 1 1.9362679735421096e+01 1.4866645118299008e+01 5.1010579794183881e+00 77 70 -63
386 1 6.2761566397285753e+00 1.5625525960057379e+01 4.5470213137837137e+00 87 -53 3
94 1 1.0773704492497707e+01 1.9995677615050116e+01 7.9540098388940530e+00 -60 32 52
447 1 1.3634285611985041e+01 1.6094864378453462e+01 1.0218516099508652e+00 -7 -111 29
292 1 1.0929263584110995e+01 1.3669683335160963e+01 6.0795972530857672e+00 -19 21 58
402 1 1.5006460289361728e+01 1.4546818879853028e+01 2.9490226901570633e+00 39 60 -32
369 1 3.4983982740193404e+00 1.2807951758390468e+01 6.1358124633338074e+00 0 62 -1
310 1 7.2669600540919888e+00 1.4390822715947751e+01 6.8607885546783987e+00 -9 -14 20
74 1 1.9188277245191866e+01 2.1243542761327738e+01 2.7378782355152946e+00 9 56 -12
321 1 1.1031737078334185e+00 1.9167761018745207e+01 5.9004694172352457e+00 48 26 -83
110 1 2.0681259252582219e+01 2.0662535225666787e+01 5.1515461433226095e+00 26 -33 -29
457 1 2.2942749405698841e+01 1.4444128547042805e+01 1.9095840209239938e+00 -7 -40 75
65 1 5.9791023551113920e-01 1.6980424976403494e+01 3.1765220248789086e+00 -35 67 -15
128 1 9.4574566921395409e+00 1.9871732918264271e+01 4.8515936056612654e+00 30 5 -25
104 1 2.2302827609252649e+01 2.0990361164302971e+01 7.3054278288538175e+00 77 20 -8
429 1 1.8258969360666583e+01 1.2685619062791405e+01 6.7256190562165923e+00 -26 -44 46
419 1 4.1655210465628008e+00 1.5756516373163368e+01 6.5754561156810105e+00 45 4 14
254 1 1.9306544807012948e+01 2.4353930824093737e+01 4.1159127341201529e+00 44 92 39
180 1 1.0803180746024934e+01 2.3053318660807555e+01 4.6661447177495713e-01 4 283 -23
125 1 1.8262815808757104e+01 2.0945712660663752e+01 7.1405399388401349e+00 -51 -48 -9
493 1 2.0983045899646520e+01 1.8561202696856597e+01 3.4064455857253342e+00 -43 99 58
23 1 1.4683430328548496e+01 1.4774243281741503e+01 7.1831805466995435e+00 62 35 10
172 1 6.9964650933199737e+00 2.1046702204648753e+01 6.1142685540058999e+00 -26 -105 39
196 1 1.8683971276629585e+01 1.2664095484478146e+01 3.3206393422318436e+00 8 19 15
22 1 1.2800125072831923e+01 1.8551232349127812e+01 4.7414743503490318e+00 -2 -77 80
373 1 1.8578634848939266e+00 1.7145677035758546e+01 7.5920377366245413e+00 44 40 -45
75 1 1.7637672930793958e+01 1.5937123299370768e+01 3.2610645971623629e+00 3 36 -1
290 1 1.5823085853952753e+01 1.9866112137116914e+01 7.6670767871031620e+00 -17 -93 -79
184 1 1.2417213254263785e+01 1.3744250142240068e+01 1.6304137866814059e+00 2 11 41
362 1 1.6612235348436535e+01 2.0522007082477245e+01 3.8827556069100431e+00 -58 -9 -60
442 1 5.6571346452166864e+00 2.2564779057691510e+01 1.5253047662350316e+00 16 -6 -108
477 1 2.3513222216262893e+01 1.9517722481107345e+01 3.4752805692113724e+00 42 -10 33
346 1 2.1559081694923545e+01 1.6972989528436226e+01 5.6584584077251332e+00 44 33 -112
245 1 1.4152723038776161e+01 1.2655281518356221e+01 5.2304562594892596e+00 -24 3 89
488 1 1.7295786427301605e+00 1.8994568122806367e+01 6.7405282889561324e-01 -18 -14 24
148 1 9.3052764654935665e+00 1.5631824226544323e+01 5.1932992814227701e+00 -43 45 60
510 1 1.9203747719170014e+01 1.8433553873845739e+01 6.5249329332712085e+00 -59 136 33
59 1 2.4660146825998716e+01 1.5702835138781166e+01 5.5535966737364468e+00 38 -98 48
135 1 1.5929828695642872e+01 1.8034504334094045e+01 3.6487379461466509e+00 1 52 -65
64 1 8.4264486285426461e+00 2.1699903704048403e+01 9.4936758092018458e-01 -40 63 28
126 1 1.9199160600642713e+01 1.7422940558520736e+01 1.4320055754331356e+00 -36 -32 -28
12 1 1.5332301846554055e+01 2.2069076930819683e+01 5.9269260992123067e+00 50 -39 61
462 1 1.2823002061187081e+01 1.6587031189988995e+01 7.7121428574529940e+00 -58 14 41
169 1 2.7968382971446619e+00 2.0431906552216009e+01 4.6606581706800885e+00 -12 37 6
491 1 3.4464605893835438e+00 1.7324976216730963e+01 2.5157890103442195e+00 -27 -29 -30
315 1 8.0585081191007184e+00 1.7948822601445745e+01 3.5828995267542085e+00 -66 100 89
288 1 2.1139347173051821e+01 1.5608499769481083e+01 6.9758993846285133e-01 -64 -26 -77
105 1 2.2242134586874975e+01 1.4512522836481169e+01 4.6184044795154398e+00 2 90 5
191 1 1.6247523631550649e+01 1.7720013063767770e+01 5.0685880806727712e-01 34 -17 -22
344 1 1.4515837248585182e+00 2.3899690791918701e+01 6.9634561336888705e+00 33 -42 15
379 1 1.0707102514779777e+01 1.7731974485390403e+01 6.3978742076834898e+00 147 -9 65
492 1 5.5634817635371761e+00 1.9564070662890167e+01 7.9545267728064726e+00 1 -21 44
194 1 1.0632808059651698e+01 2.1175689314361762e+01 2.6167673941547429e+00 41 102 7
216 1 1.3829429989415933e+01 2.4628986316328085e+01 5.6120029994299792e+00 -39 -8 161
376 1 1.2596183538674971e+01 2.1231652762917530e+01 5.8841134108000306e+00 -79 -11 -8
53 1 8.5366253920270712e+00 2.3454162989555666e+01 6.7024741418331519e+00 61 95 148
479 1 4.3208782821497334e+00 1.4420725799801566e+01 2.6901724412417978e+00 -26 -18 -54
326 1 1.5345203359576455e+01 2.2104458788348868e+01 1.8714764136759232e+00 41 120 -7
96 1 1.3110008523060936e+01 2.3874571467283069e+01 1.7525272443809568e+00 244 39 73
470 1 1.7204944336846136e+01 1.6721139337985225e+01 7.8620101105151958e+00 28 -32 -134
10 1 9.3011970565066928e+00 2.4463558361839560e+01 4.2835556892714175e+00 -83 57 -27
175 1 3.1215855301974424e+00 2.0846862409682558e+01 8.1458344794823514e+00 40 3 -14
331 1 6.0396549248620879e-01 1.3051390976120036e+01 5.7907092595022256e+00 34 18 -12
228 1 2.3140323444616602e+01 2.3943257035923679e+01 7.6181347171199718e+00 -43 20 12
9 1 9.0014900059137570e+00 1.2768405760099881e+01 3.0486317331590653e+00 -41 33 8
485 1 5.9374629996704344e+00 1.6790558568336952e+01 8.1893614962735235e+00 -20 -7 91
11 1 5.3729233901089737e+00 1.5793069683400761e+01 1.7859204001907214e-01 14 74 -50
134 1 2.8327261049249153e-01 2.0694440128019956e+01 8.0981428162937608e+00 -68 -16 14
52 1 2.3707781286910642e+01 2.3856440005346663e+01 3.5219337116629545e-01 106 -89 141
355 1 2.4024453055891763e+00 1.2570317456863757e+01 3.3769094634044476e+00 -29 -1 70
77 1 8.7999483066065434e+00 1.7642389581448839e+01 8.2901765342481326e+00 58 -24 0
446 1 2.4401474175197389e+01 1.2932005898150887e+01 8.3147051555074949e+00 30 40 -15
251 1 1.6704074161768034e+01 2.3414531199253492e+01 8.3229425115559739e+00 -35 24 -50
505 1 9.9961590421370197e+00 2.4386409942157414e+01 1.0553884922681702e+01 -2 24 -43
449 1 1.4080063514637088e+01 2.2658590927737627e+01 9.6244952518746700e+00 -53 81 31
157 1 4.8930630743781736e+00 2.4089398460578803e+01 1.0971030055826693e+01 -5 -15 64
453 1 2.2515550635711335e+01 1.3874248801425855e+01 1.2193109041634839e+01 65 -5 0
296 1 1.2766290039748180e+01 2.1164932305730780e+01 1.1796286776761360e+01 -50 -110 62
144 1 1.6573326593092833e+01 1.6663364963692651e+01 1.4592574982066198e+01 -22 28 51
332 1 1.6258250591195299e+01 1.8178281820620629e+01 9.9417628936227711e+00 15 -34 -98