LAMMPS data file via write_data, version 4 Jan 2019, timestep = 5000000

512 atoms
1 atom types

2.7906552510737370e-02 2.4807093447489663e+01 xlo xhi
2.7906552510737370e-02 2.4807093447489663e+01 ylo yhi
2.7906552510737370e-02 2.4807093447489663e+01 zlo zhi

Masses

1 18.0153

Atoms # atomic

261 1 1.2962840695726635e+01 1.2053429635805037e+01 6.6663915906956834e+00 9 42 -118
409 1 1.4161878339750261e+01 4.7828418303218834e-01 6.8573204352562183e+00 -67 89 69
193 1 6.8286769667282678e+00 4.4671597212171994e+00 4.8229260894727499e+00 -74 32 -11
267 1 1.5569007801312143e+01 6.8658783136807751e+00 7.4016158735417532e+00 -103 71 -51
52 1 1.7723597659047840e+01 3.5591231215941286e+00 6.0532474856266196e+00 99 -100 135
280 1 1.9913827645015935e+01 6.4741661452897175e+00 2.2375980898463071e-01 19 -42 156
157 1 1.7186380426624702e+01 1.1619568094239577e+01 4.6785099674280213e+00 -10 -12 62
355 1 9.1239659325854952e+00 8.5956254222622719e-01 1.7506426924837188e+00 -21 0 67
107 1 9.7570847597886186e+00 1.2215979300987989e+01 5.6655664382584829e+00 -27 59 -133
408 1 1.9529841482254483e+01 4.6458998724874050e+00 1.9203019941981236e+00 -141 32 53
245 1 5.9396034667761963e+00 1.8254720992755080e-01 5.9466778788913883e+00 -21 10 107
441 1 8.2093619855107427e+00 8.8502754787693849e+00 3.6076290058075178e+00 -14 -63 -11
411 1 1.2108169960806308e+01 8.7433601938718528e+00 2.0586952241345169e+00 22 120 153
470 1 1.1532839499601744e+01 1.2237769032348179e+01 7.0981432564191071e-01 17 -45 -135
498 1 2.3138203028700369e-01 8.3368324223859727e+00 4.8550642325088100e+00 48 13 5
68 1 9.2877435848996175e+00 8.3007673976763634e+00 6.2296147330794778e+00 6 -20 10
420 1 2.7320942740532739e+00 1.5742518765390399e+00 1.6330539501214010e+00 33 -30 127
316 1 1.3848706604498064e+01 6.1147006422044985e+00 9.6059361996182280e-01 37 114 62
249 1 2.1987987171965862e+01 6.1516947655577310e+00 6.0160830428654322e+00 -74 -50 -34
412 1 2.0318809300075529e+01 7.6652187596734640e+00 4.7291669215648460e+00 -14 21 -71
352 1 2.0684693844960087e+01 3.3737684399374070e+00 5.6542059181059976e+00 36 -34 -69
78 1 6.6275833679969001e+00 1.1431082117071945e+01 6.1383872451786772e+00 -17 -53 -20
307 1 2.0890106413853395e+00 8.3319137708523687e+00 2.4289486489731655e+00 -43 90 -14
292 1 4.3513196996899275e+00 9.1858189125181955e+00 4.8111282571264269e+00 -14 26 51
363 1 1.5700973962666680e+01 2.9125161886850264e+00 7.7882087069862793e-01 -16 -35 13
504 1 1.0621671823352562e+01 1.0268393520214209e+01 3.6291502639662041e+00 -34 -16 44
34 1 1.6521118491717068e+01 1.0168207514632009e+01 2.2366533475746260e+00 -125 -36 119
303 1 4.7521613489339751e+00 2.7771440790717632e+00 6.4063554404595919e+00 30 -3 200
206 1 1.9976959106358556e+00 6.8843655370870174e+00 6.1193725259600180e+00 15 -91 17
391 1 1.0061809211076181e+01 1.0429560071561877e+01 8.0376183374147239e+00 -92 -30 3
89 1 1.3836660619235678e+01 1.1505219986011856e+01 2.5866013796650607e+00 -10 9 -177
511 1 1.3510392731603483e+01 1.2797087529480133e+00 1.7476907217998781e+00 58 5 110
400 1 2.0134474536123514e+00 3.7401621810128334e+00 6.1194084621698064e+00 52 13 -34
5 1 1.7088266712147941e+01 7.5165908375888195e+00 5.1569638807915688e+00 34 38 -1
13 1 2.3700105475296347e+01 6.0960305979844662e+00 3.0624445114129091e+00 136 -7 71
99 1 1.3137604351349310e+01 9.8088673098927206e+00 5.1421156868589755e+00 7 -10 34
200 1 2.2331158402676067e+01 7.7193593657184243e+00 1.1695592133786503e+00 71 82 -7
510 1 2.1335867931837015e+01 9.2928145278163665e+00 2.8717729824310525e+00 -61 149 34
302 1 1.1276149591409522e+01 6.6377461472634391e-01 6.1717165901703739e+00 36 -58 -21
382 1 6.6412766195240485e+00 1.0838191211284254e+01 3.7397166718565651e+00 30 -13 59
147 1 3.4704550145060189e+00 5.3666114551670452e+00 4.0931416276585084e+00 -22 19 97
45 1 8.2897182765373536e+00 4.1521720604906163e+00 9.4465585523155193e-01 4 84 -79
101 1 2.7544023738908741e-01 1.4781028903036164e+00 4.9239632717716439e+00 -33 -29 71
141 1 2.1941610980878053e+01 4.1625260747978787e+00 3.1596591417037732e+00 99 72 -10
262 1 3.7135775424189550e+00 8.2692925210042088e+00 7.2044004996825741e+00 10 41 -41
298 1 1.4931968166736048e+01 4.6379034809223088e+00 6.2038047784783981e+00 6 47 14
10 1 1.8874242319804083e+01 1.8471868726634373e+00 1.6022055854579285e+00 -85 62 -21
508 1 6.0199002242499133e-01 1.0076046200867973e+01 7.8665025549186851e-01 15 16 -71
427 1 1.7948509744827341e+01 5.5069675040355097e+00 3.8496145797000865e+00 129 -19 32
501 1 1.5329969633612670e+00 5.4799178358121061e+00 2.0344325069776135e+00 29 -16 -3
338 1 2.0712866828320017e+01 1.2244313160887899e+01 2.4288436454827518e+00 -16 -1 34
70 1 5.5529607910778234e+00 1.1319295090857835e+01 1.2886051328871904e+00 89 -3 18
105 1 6.6873884421252736e+00 9.0437162308500607e+00 7.8550154454356242e+00 4 83 5
299 1 6.3798351862432554e+00 9.9930813491189441e-01 2.9543198219909645e+00 36 20 45
216 1 1.2175329359919127e+01 5.1759303424496412e+00 5.2433849022598507e+00 -35 -11 170
207 1 1.1353534948955703e+01 3.0351076431118886e+00 1.0729338678417666e+00 29 -35 8
143 1 2.1142797609345401e+01 1.1232188896813446e+01 6.8845129562438574e+00 38 3 -17
174 1 2.3506085813438403e+01 1.8620042171569207e+00 2.0774973990555976e+00 8 102 -26
337 1 1.5347374924040794e+01 7.9150490885312017e+00 2.9197753646332392e+00 10 8 -38
469 1 3.9767773039047838e+00 9.2292494696476659e+00 5.4845729619935968e-01 41 8 15
59 1 4.6508628661311340e+00 3.0859790749526992e+00 2.7620249750416130e+00 36 -101 54
259 1 1.6952489386157588e+01 1.9713344587822665e+00 3.5204051694313456e+00 1 50 27
83 1 5.7082799722515682e+00 7.1544658262766676e+00 3.7509732610529389e+00 36 3 14
67 1 1.1841034566116246e+01 7.4963828116347626e+00 6.7538610190837733e+00 -28 -92 -36
320 1 2.2375213651360092e+01 1.4054874729449272e+00 6.7408147508454990e+00 22 98 45
419 1 8.9245505276328849e+00 7.0923724667328987e+00 1.6530360076013453e+00 54 -4 10
71 1 9.4041359875997124e+00 3.2523176970099392e+00 4.0506619502914933e+00 59 -57 -66
91 1 1.5114973402974027e+01 4.5714399691932712e+00 3.1892494786912908e+00 -23 3 22
80 1 6.5392361834945834e-01 1.0448482917942888e+01 7.6306526579762188e+00 25 53 -4
242 1 2.3269339991806362e+01 1.0398665173849784e+01 4.5499402292685458e+00 8 0 -59
390 1 6.0820948002464119e+00 7.4014183892563272e+00 9.9828082909445826e-01 -20 -36 -27
244 1 1.0686132628202195e+01 3.3726374616677846e+00 6.5929564976325263e+00 -47 68 7
175 1 1.8573125877355160e+01 9.9525781730000293e+00 5.7607546671299321e+00 29 4 -18
108 1 2.1797786521153782e+01 2.2429875200026355e+00 1.7663682190807534e-01 45 -39 32
76 1 2.8487087593535145e+00 1.1505131859276576e+01 5.5050732543906626e+00 22 23 15
165 1 1.1328141772226335e+01 5.8108254043421885e+00 2.5036800903452128e+00 93 -26 97
140 1 2.4443006289066382e+01 1.1724809227672417e+01 2.7557954837313838e+00 -58 37 -9
439 1 1.4340920321504415e+01 9.4331835141839147e+00 7.8308863749671040e+00 27 -37 -78
452 1 2.3654561076196131e+01 7.6747556082337889e+00 7.6038705687870642e+00 10 0 81
460 1 7.1667201426695415e-01 3.0976614962589095e+00 5.3364854462008104e-01 -115 124 29
9 1 1.8682513153906172e+01 2.3089281802449910e-01 5.1898543138765616e+00 -27 38 20
135 1 1.1480000713379113e+01 3.1073314469402646e-02 3.3461386281316630e+00 -6 57 -72
4 1 7.8201532962849205e+00 6.0024171601742422e+00 7.1042268098613075e+00 34 -71 9
198 1 1.9246569502340208e+01 9.0730559971966529e-01 7.9754951680958435e+00 -41 48 11
118 1 1.4899479322970313e+01 5.0244207021127729e-01 4.1527378518112963e+00 -10 132 -93
97 1 5.3737075583957736e+00 4.6047233833992918e+00 7.9092753227981960e-01 29 70 -15
350 1 9.2755564616852979e+00 1.1948912678694452e+01 1.8438442424445061e+00 21 -4 38
275 1 2.8490234220399078e+00 2.4252732772101754e-01 5.3862829190914070e+00 34 -14 30
197 1 2.0644481184092527e+01 5.3609002502085445e-02 2.7139707099201895e+00 7 45 56
447 1 1.9661874976816271e+01 1.2144996715379081e+01 1.1068205693417354e-01 2 -119 24
21 1 2.1376366730652290e+00 7.4629850777063425e+00 1.0748745332876839e+01 16 -4 -108
372 1 2.2623521560022276e+01 5.2178652917786055e+00 9.2934890779983448e+00 29 4 16
65 1 5.9612848619933070e+00 2.7643318048636432e+00 1.2098369449200829e+01 -41 83 -8
196 1 4.5951165131552818e+00 3.1210977553253674e+00 9.4766708058112314e+00 24 14 12
246 1 5.2111112453226927e-01 8.8496602701271332e+00 1.2182170066172104e+01 77 51 100
220 1 2.8354852227757710e+00 3.7856146274010642e+00 1.2600130716657366e+01 58 -5 8
257 1 1.4114453686750945e+00 6.7517163915466059e+00 1.4969296955947415e+01 -30 21 52
376 1 1.8849522061380384e+01 1.1492689100315037e+01 1.2202137676665478e+01 -72 -2 -20
395 1 5.2347186495801150e+00 1.1213750298339816e+01 1.0823012578523979e+01 -22 38 -38
325 1 3.5023327021300359e+00 6.4934530259783259e+00 1.2812300756718097e+01 -73 21 29
319 1 8.1290406267381385e+00 1.0625481264163218e+01 1.0052294592247669e+01 -35 -9 40
252 1 8.5103793219873154e+00 6.7074260227380478e-01 1.2018966313230806e+01 -46 -75 13
72 1 8.8249779094946259e+00 2.1379463470650197e+00 9.7923398974047160e+00 36 59 32
152 1 1.3590817978839885e+01 1.1895783628074884e+01 1.3201443131329560e+01 -66 -147 -21
227 1 1.1166631961203095e+01 1.6645788632932343e+00 1.6181248951166722e+01 131 105 -5
24 1 1.5024617201440190e+01 8.1995879602370447e+00 1.6389990384167710e+01 41 -49 63
324 1 2.4144593668631948e+01 1.3065302867233024e+00 8.9320594171439129e+00 5 -62 88
310 1 1.1602351391628362e+01 1.1481169485369055e+01 1.5658279688881859e+01 -9 -7 -3
161 1 1.2755212774813518e+01 2.8915798589590032e+00 1.3502413114286650e+01 44 -36 42
461 1 2.1831376768188022e+01 1.2267709670465690e+01 1.1810312616377766e+01 10 25 -11
289 1 1.5611389837009961e+01 1.0713783194287336e+01 1.1767607913236771e+01 -13 -1 -45
327 1 2.1836671516502093e+01 9.0344273855710906e+00 1.4739888077232038e+01 81 -3 -6
183 1 2.4682226763892871e+01 9.8614266086818478e+00 1.6268098255338948e+01 34 108 18
293 1 1.1449588404819959e+00 6.3125907407974751e+00 8.7113967589434775e+00 2 124 51
15 1 1.5843427556217868e+01 4.8628774165778745e-02 1.3951763248666795e+01 11 -12 -122
77 1 1.6225203755139928e+00 3.4497038715411317e+00 9.5171479561142913e+00 49 -41 9
239 1 6.3822730532069594e+00 1.0363845753880387e+00 9.0230749459801380e+00 55 -29 18
22 1 2.0409421442700214e+01 1.4613832607151100e+00 1.5728489153364018e+01 -6 -77 75
26 1 1.7223822725448805e+01 7.0605552623294052e+00 9.8547347239577885e+00 -20 28 68
255 1 2.2298192656619065e+01 9.5583425323256126e+00 8.8251746970536491e+00 -123 7 73
110 1 5.7607551129990426e+00 7.7976733125701492e-01 1.3915392435596413e+01 32 -31 -19
2 1 3.5845973417109014e+00 2.2570967608710406e+00 1.4694814340250574e+01 -45 -1 -15
417 1 2.0420740781624978e+01 2.4163572772146966e+00 1.1916914844592320e+01 4 6 -28
222 1 1.6372432343292218e+01 3.3879466844806121e+00 1.0569266759002444e+01 20 54 44
287 1 1.8922464812572954e+01 6.6530983461490267e+00 1.2419776352847046e+01 -14 0 -4
414 1 2.4029528142616755e+01 1.0893024344861020e+01 1.0528312974201640e+01 99 14 56
304 1 8.7832410790058777e+00 3.8163537223563377e+00 1.2482703841610107e+01 -26 -51 117
251 1 1.1756360512752448e+01 1.2109683997446323e+01 9.2241255651680447e+00 -41 27 -47
413 1 1.1921354300629368e+01 1.0531378876918309e+00 1.0563532741199493e+01 -20 -8 -17
407 1 9.9739373372764764e+00 6.0369003525144374e+00 1.0742224141776974e+01 16 7 58
283 1 2.2351489918827568e+01 1.1768738784284629e+01 1.4395543615968244e+01 87 -40 70
57 1 1.8366085382903805e+01 4.7473416903461825e+00 8.7222004601108107e+00 -26 1 29
179 1 2.3501350717277937e+01 1.5006539624183779e+00 1.3035961317608358e+01 -68 -76 -38
190 1 1.4704308131776200e+01 1.4695042639812037e+00 1.2010279311385146e+01 102 78 20
168 1 1.6375783893720239e+01 5.7404295475879783e+00 1.4143268554396894e+01 103 -48 -64
172 1 1.3026246231975474e+01 9.2566887584548105e+00 1.0376766274716532e+01 -26 -111 48
212 1 5.6880182581579843e+00 7.9391759425687267e+00 1.4364276605347122e+01 -14 -44 -30
402 1 4.4436839167541979e+00 1.0349569884705682e+01 1.4775356698594386e+01 41 50 -30
356 1 1.9506567190429735e+01 1.1735047075061940e+01 1.5018559097807726e+01 -64 -4 -2
493 1 1.2836545025813944e+00 1.2355927204711913e+01 1.3129606297823264e+01 -33 83 53
467 1 2.2929256110125486e+01 7.5402880949057369e+00 1.2732369969599759e+01 -65 99 52
364 1 1.7862458445462217e+01 9.6314504592317220e+00 1.5521251390607484e+01 104 11 -27
258 1 1.7979701726111308e+00 9.6516073305219443e+00 1.4457597281896840e+01 122 -54 56
20 1 2.1103926120845919e+01 7.0419618381901481e+00 1.0655748785753095e+01 140 36 26
512 1 2.8757900854323526e+00 9.9576193615132524e+00 9.5221354224973069e+00 -16 -30 97
50 1 8.1970487175152993e+00 8.2197102218528730e+00 1.1765755566057166e+01 11 31 -37
265 1 1.3073064415014034e+01 8.5037699675170213e+00 1.4066601962063293e+01 -85 -59 70
392 1 1.8196310535702764e+01 3.8193151167480113e+00 1.2572396437473792e+01 25 15 -60
315 1 9.1565868776733517e+00 4.5543330425375101e+00 8.6958105557554255e+00 -70 95 101
487 1 2.3716494250818187e+01 5.4624640930665080e+00 1.3835575829942647e+01 17 38 -8
399 1 1.4498786654425373e+01 5.4941758437798089e+00 9.8334038655819338e+00 20 58 -22
297 1 1.2103916153113628e+01 6.9072100589274354e+00 9.4940397294453600e+00 12 32 -13
300 1 1.1745090535826916e+01 5.2098381565785976e+00 1.2749488195596854e+01 -96 72 40
500 1 6.0053909950693569e+00 6.1932898101953420e+00 1.1769020903454409e+01 66 -72 56
54 1 8.5154163251079424e+00 1.2359543340988526e+00 1.5094446295491005e+01 0 19 48
35 1 2.4701937105294554e+01 4.0850224979122887e+00 1.1533952751041747e+01 -62 25 -47
492 1 5.2400925818141513e+00 6.0313972293451652e+00 8.8943911990905669e+00 -5 -11 51
182 1 1.4318105080816249e+01 6.4414865975975344e+00 1.2440847783418874e+01 114 52 26
217 1 2.0752051304156645e+01 3.1837337568287412e+00 9.0719528320731122e+00 90 -44 74
173 1 1.9621282988874825e+01 9.7254218961715786e+00 1.0181055559847007e+01 42 62 3
81 1 1.9579444985098903e+01 7.0978860445776011e+00 1.5598884887536093e+01 48 90 -15
410 1 1.4738412453816613e+01 3.8489053913374782e+00 1.5559834344329962e+01 34 140 14
345 1 2.1598682187171740e+01 3.4677674393507054e+00 1.4190431756842832e+01 90 137 -11
74 1 9.5210476484053146e+00 9.0692588507496197e+00 1.4048974299574963e+01 6 59 -19
85 1 9.6344959617286530e-01 9.8732794631951348e-01 1.4432283335556935e+01 17 48 -92
354 1 1.7204814714407782e+01 8.8810128927322385e+00 1.3111072833629157e+01 -4 49 32
474 1 1.1226097556995040e+01 6.7269749066931590e+00 1.5007884546276628e+01 -10 -53 -27
166 1 1.1245412992146679e+01 1.0597908319182130e+01 1.2281286760536998e+01 32 -10 -23
362 1 8.9837750706100206e+00 1.2198204823230263e+01 1.5756520802328925e+01 -48 -22 -63
55 1 9.4198872795742883e+00 4.4037032888254259e+00 1.5393016010887294e+01 36 74 -21
472 1 2.4024798945478598e+00 4.6375913289902421e-01 1.0207900320787495e+01 34 -23 68
188 1 6.5466047647354060e+00 1.1884126707128123e+01 1.3214572432622269e+01 1 -2 79
365 1 1.7385726674231940e+01 2.4110000321364580e+00 1.5151929323765295e+01 -4 71 -34
94 1 7.5945511977376352e+00 9.8480811639739247e+00 1.6050768642306068e+01 -62 21 59
237 1 1.6335943763359097e+01 8.0405282160254732e-01 8.7380226943762622e+00 11 -35 -20
317 1 3.2219908220573878e+00 5.0550472001347639e+00 1.6147360609965176e+01 108 -32 -31
126 1 1.4001543242412447e+01 1.1245703717936404e+00 1.6392678716651609e+01 -23 -24 -38
306 1 1.3403914388233238e+01 2.7366036769690747e+00 8.6905592612803328e+00 -6 58 -66
38 1 1.7291984090759115e+01 9.8396247828176335e+00 8.3278188309045067e+00 -22 59 -22
226 1 7.4790387786931429e+00 4.8799204470269339e+00 1.7407655098364643e+01 8 9 -9
6 1 2.3978462935397111e+01 8.6675149565775591e+00 2.3638490652064021e+01 89 27 -29
367 1 8.3978400237106605e+00 5.7218520936611412e+00 2.2320988376604987e+01 -1 0 62
153 1 2.9496149650091326e+00 3.4135513220843268e+00 1.8534402966718972e+01 -2 -24 82
53 1 9.0024263667533706e+00 6.1446041870805397e+00 1.9408058571596776e+01 70 107 140
47 1 5.5584239891154876e+00 6.5282407643805138e+00 1.6618201143319205e+01 26 59 -106
41 1 2.4501417917947904e+01 5.0377757914852728e+00 2.1680731478211513e+01 66 -16 40
82 1 1.1777414939378998e+01 1.1012491583131558e+01 2.0887396459446691e+01 4 3 -1
202 1 2.1877328260294895e+01 8.9258599209822513e+00 1.7714820799982540e+01 27 100 -12
254 1 2.0435737318727760e+01 5.1225433831661986e+00 1.6920407906538827e+01 39 86 45
506 1 8.9345821833529939e+00 1.0356498617395473e+00 2.0504334005079308e+01 -17 -32 0
203 1 1.6955859158592610e+01 1.1916088555807477e+01 2.4471884312224191e+01 120 -115 75
260 1 4.6027126345773306e+00 5.8040551882980373e-01 2.4680997963041435e+01 -22 7 55
476 1 1.1760769107969349e+01 7.8418771277751116e+00 2.3628212146392727e+01 -31 -7 -55
340 1 1.1566031262281040e+01 1.0386775365337606e+01 2.3547582234564899e+01 62 40 19
121 1 5.4224454596480975e-01 3.7804102356096996e+00 1.9757060166948598e+01 -4 1 11
104 1 7.8014870237505161e+00 1.0040423168774996e+01 2.2296071779214529e+01 86 35 -20
485 1 1.9977471277244597e+01 5.4876284425801591e+00 2.2553724604950425e+01 -18 -8 76
301 1 1.2362620652431234e+01 2.4011670099546056e+00 2.3121613139537651e+01 106 24 25
359 1 2.1746839054337244e+01 2.3456762234972928e+00 2.0678913222270907e+01 -44 60 1
218 1 1.1339555198754889e+01 4.9155426641794913e+00 2.2224104306082765e+01 -58 -8 -25
236 1 2.0579461902144112e+00 1.1441379964569823e+01 1.7595002020310176e+01 26 86 49
129 1 1.6010475315361880e+01 9.9681355315534450e+00 1.8065521286892370e+01 -51 -27 -86
406 1 1.4740345619142211e+01 1.8817800919941774e+00 1.9132859933856004e+01 44 142 0
446 1 1.1298561828459146e+01 9.0219674032968165e+00 1.7005842781275952e+01 25 29 -14
353 1 2.3895006640110026e+01 1.1926865979530300e+01 2.0569744560977213e+01 -170 66 92
305 1 5.3734164644411084e+00 8.9786338222205710e+00 2.1289907858569705e+01 9 106 31
158 1 1.9144074405958946e+01 9.5231152361968512e+00 2.2472612217531100e+01 -78 51 -81
221 1 1.9505955716598393e+01 1.1619725737128499e+01 1.8775115044574164e+01 6 0 39
318 1 1.4268995951286312e+01 4.2488781038885906e+00 2.3429495445882552e+01 29 9 158
113 1 3.4047240868028759e+00 4.9292748429559358e-02 2.0992825953486900e+01 -50 24 85
312 1 8.8449764525203900e+00 7.8736517544284208e+00 2.3701518752607434e+01 -5 12 17
457 1 1.1525746959963534e+01 4.6803373445644194e+00 1.9358187899318963e+01 -28 -49 72
191 1 3.2348809243516596e+00 8.5196535260965511e+00 2.2710335950526499e+01 45 -12 -23
49 1 5.9129845686828784e+00 6.1919118788522525e+00 2.0890139517111912e+01 -11 28 -28
371 1 2.1933064557271685e+01 1.0880076189770392e+01 2.3211671223439076e+01 -79 38 -59
464 1 6.1235796416017574e-01 4.4451880477469674e-01 2.1368041717597094e+01 11 21 -27
269 1 3.0316026490440233e+00 1.1506716811749975e+01 2.2083353170202365e+01 26 -34 4
385 1 1.6605911422376238e+01 1.2032212548824985e+01 2.1263877301834832e+01 50 29 45
37 1 1.9231904947183367e+01 2.5164172774876929e+00 1.9779462325934610e+01 38 29 -40
93 1 3.6712737983965527e+00 2.6155132563405052e+00 2.2721811667116278e+01 -34 -14 17
294 1 9.0341631413998282e+00 1.3733310056042067e+00 2.3457610086336750e+01 34 39 -78
120 1 1.6855837142103418e+01 6.1950939454721654e+00 1.7264473922595208e+01 -9 -70 74
228 1 6.9945107302816956e+00 2.5981940900656819e+00 1.8690699630396075e+01 -46 23 21
264 1 3.3051143213291290e-01 9.0585699826814210e+00 2.1188266416938760e+01 -108 35 43
273 1 8.8505790793680887e+00 8.4383290106289355e+00 1.8203413464836977e+01 73 162 117
208 1 5.0631458407303507e+00 3.6838898990710640e+00 2.0233658362221846e+01 17 76 -10
123 1 4.7211434548653841e+00 8.3073163944337232e+00 1.8624532069811387e+01 -57 -5 -2
256 1 2.3186450697287668e+01 7.2113330002055580e+00 2.0085221855801159e+01 22 27 -31
471 1 2.2000376095387111e+01 3.9759989998708898e+00 2.2739526338480630e+01 -84 -9 13
240 1 7.0563501309740060e+00 3.5001300066913732e+00 2.3111581699220409e+01 -226 145 52
336 1 1.2899697272017175e+01 6.0361773403509522e+00 1.7467790196016018e+01 36 -19 -122
51 1 1.5190318807243305e+01 4.4493287467713332e+00 1.8879251518064102e+01 50 -10 -39
64 1 2.3265023938995540e+01 3.0736246275101982e+00 1.8484365441134663e+01 -45 61 7
491 1 1.5950696140988507e+01 5.0535832383022878e+00 2.1486131712076542e+01 -34 -23 -20
434 1 1.8302375775292091e+01 3.4778055347388399e+00 1.7584058389146634e+01 46 -25 -74
431 1 4.6203298178910801e+00 1.0696877500930956e+01 1.7527013533623908e+01 -74 -33 -26
98 1 1.7059508253240182e+01 9.5571945168921495e+00 2.0399767152946744e+01 64 73 -4
133 1 1.1620307928533904e+01 1.5026698375563423e+00 1.9903363743160824e+01 -39 69 -34
111 1 9.8805827700918836e-01 6.3286869016544385e+00 2.3693372881347415e+01 8 48 94
436 1 1.3147084024921753e+01 9.5650437689797378e+00 1.9033223422067920e+01 42 68 19
42 1 1.2799804126997214e+01 7.4682041032079463e+00 2.0938981642497666e+01 2 69 -72
333 1 2.0371551879133243e+00 8.8141338262706483e+00 1.9195304224624749e+01 22 34 32
288 1 3.6055983885903711e+00 1.1127147414876879e+00 1.7571586233013910e+01 -64 -23 -83
437 1 1.8135650736452561e+01 3.4658906796205575e+00 2.1928586190997571e+01 20 7 -120
404 1 2.3077997925135371e+01 5.6046500214586930e+00 1.7263045220176416e+01 -25 143 49
209 1 1.5439700652378342e+01 7.5314261850304698e+00 2.1474733946168570e+01 8 16 -47
25 1 9.3424690023188735e+00 1.0396186404003762e+01 2.0203413659550435e+01 48 -77 -53
433 1 1.8955575169158294e+01 8.2264975039094086e+00 1.8518800636107024e+01 16 -55 -38
296 1 1.6270689272980682e+01 6.7804361165684701e-01 2.1090140648883896e+01 -41 -109 58
205 1 2.0381580838357543e+01 7.3715747826234006e+00 2.0739889191058047e+01 -34 -10 -61
290 1 6.4535309398050504e+00 5.3564246036399943e-01 1.7315845306447770e+01 -11 -93 -76
125 1 1.2013264407629167e+00 2.4876427138768031e+00 2.2731550999737628e+01 -44 -36 -11
1 1 2.4217588929274029e+01 6.7745437424283850e-01 1.7091100090613629e+01 -53 -28 59
379 1 1.5587946065171671e+01 7.8885814322018453e+00 2.3999792450379864e+01 148 -16 57
432 1 2.2385843790920248e+01 1.1643441045761783e+01 1.8460633536464030e+01 32 -58 19
87 1 1.7376806626786795e+01 1.4380283275772217e+00 2.4010781206002854e+01 -3 36 73
8 1 4.0101114290206450e+00 5.6505754714868903e+00 2.3190689263303526e+01 -13 21 -29
56 1 1.3030179598490083e-01 7.6670757483188128e+00 1.7672560779442513e+01 -17 83 23
455 1 7.5228564990630593e+00 1.2216643820662245e+01 2.4302330449617571e+01 56 91 30
63 1 1.4242622495530986e+01 1.0338701430121091e+01 2.4495664563967850e+01 -3 2 -97
286 1 2.2663284008157113e+01 1.4614291575029625e-01 2.1464343054407784e+01 51 -9 13
116 1 1.8209561407385252e+01 8.5658159524565498e+00 2.4557404351113192e+01 -49 -7 -7
477 1 6.2330922315044521e+00 1.2395692113071005e+01 1.8966827246250524e+01 36 -5 31
428 1 8.8002482600814513e+00 1.2318655958478645e+01 1.8553004071986464e+01 60 -12 -9
194 1 2.3479154325349732e+01 1.7816205836141322e+01 5.9697462718544365e+00 31 121 -3
347 1 2.0686653278984330e+01 1.7665692912721084e+01 5.0632204353652730e+00 -133 -6 -2
230 1 2.1989098306392982e+00 1.4940545586856331e+01 4.9666490712621130e+00 4 -31 -132
92 1 2.2247189485727731e+01 2.3673434628224847e+01 5.1415875077761459e+00 -47 54 -95
430 1 4.3398967271979139e+00 1.3441133630925435e+01 7.1916370621659915e+00 54 49 11
418 1 2.0910188928146489e+01 2.1031769367578171e+01 5.3598645655013177e+00 -77 -66 -16
425 1 3.0328595199168973e-01 2.0081430327466791e+01 9.8939257021966298e-01 75 20 -1
134 1 5.2171732906182617e+00 1.7849610497397748e+01 6.0106514355635987e+00 -60 -16 16
429 1 1.1227047146021697e+01 2.1441917528615868e+01 1.4107576481332378e+00 -31 -35 41
462 1 2.4754477892729540e+01 2.1390603650308897e+01 5.2816413624144340e+00 -69 22 31
323 1 1.4098789505478708e+01 2.2529766487609720e+01 7.9058152804042479e+00 11 -115 23
146 1 2.4217040120930662e+01 2.3998615304506281e+01 3.0268404781147233e+00 2 -18 10
27 1 1.9063824934743344e+01 1.5348261860184870e+01 6.0550760492567202e+00 6 -31 48
423 1 2.4098248581959197e+01 1.2791835973810675e+01 6.3683723881748380e+00 -16 3 63
426 1 8.2218415620028047e+00 2.1584113750218364e+01 1.1368260284197038e+00 90 3 67
213 1 7.4960528868320395e+00 1.8216933800604750e+01 1.2416760489775580e+00 -55 -17 10
84 1 4.0542621000709111e+00 2.1417964507341189e+01 3.7975218124646237e+00 28 67 18
171 1 1.5237735055983501e+01 2.2682498588444602e+01 3.5949715675575606e+00 -43 35 11
415 1 7.4388221223163402e+00 1.4477420166220663e+01 5.7682326223653169e+00 -62 -39 18
128 1 2.2407964781668731e+01 1.4812599643705488e+01 4.9349065785454709e+00 17 7 -29
199 1 1.2048339769300560e+01 1.4547174507777957e+01 5.5862917118334749e+00 24 77 -22
149 1 1.1301402441435668e+01 2.1887688240671025e+01 7.7554013753554933e+00 -56 55 -2
268 1 9.2008106502457174e+00 1.4867888890775733e+01 2.7421450657383626e+00 -127 9 -7
86 1 7.3140636453677512e+00 1.5453544338750236e+01 8.0329110254295066e-01 -47 -54 81
440 1 2.2242069754710734e+01 1.7124859007394015e+01 1.0766983850659827e-01 -34 -36 125
360 1 1.1463899892148395e+00 1.7539258924278414e+01 2.0990140291322894e+00 -95 -38 79
106 1 6.3835478926237581e+00 2.2770216485147714e+01 3.3649840292276942e+00 5 -24 -17
155 1 1.9041094637002907e+01 1.9150550955591783e+01 1.0273364193242103e+00 -51 26 33
484 1 2.4175631592692341e+01 1.5776226064054974e+01 9.6013519259562585e-01 -41 -28 94
381 1 8.6799488304406420e+00 2.2220729202648961e+01 4.9127403541737715e+00 17 -106 33
380 1 2.0524578086047423e+00 2.3799504383924315e+01 2.1040936187501886e+00 -10 68 62
490 1 3.2318461312922619e+00 2.1723173929328595e+01 6.9505610991099358e+00 4 -93 9
28 1 1.9750150116721642e+01 2.2109367595274193e+01 1.4176195053813647e+00 22 44 21
284 1 9.7177712014330648e+00 1.6078620512778471e+01 5.7224671310174662e+00 -85 -68 -7
96 1 4.9228595714332934e+00 1.5432293188288519e+01 4.8210782796627774e+00 228 41 66
247 1 1.5981234951603179e+01 1.5975583679245579e+01 6.5899868780316622e+00 21 -15 9
238 1 2.3288962130505674e+01 1.9825250599768118e+01 3.6215355471421238e+00 48 17 -11
321 1 7.2635758073995964e+00 1.5585500495542890e+01 8.2567488950348285e+00 36 30 -91
131 1 1.1697892076895783e+01 1.8726782376129407e+01 2.0615897321301437e+00 13 -35 -9
489 1 1.6643553237914468e+01 2.2214365707746509e+01 7.5891067006053969e+00 75 184 -47
16 1 1.1088608213847453e+00 1.7396584953491349e+01 4.5566324872524993e+00 144 96 -1
295 1 1.3644473985575287e+01 2.1445896127320772e+01 5.2766269631856195e+00 -45 -7 -8
145 1 1.5358264001073493e+01 1.6124790043165781e+01 3.7057512319480179e+00 22 -6 -42
458 1 1.3748371426902425e+01 1.4038937017799894e+01 3.6179310879310802e+00 -31 43 -1
62 1 2.6413168283423460e+00 2.1081099818162571e+01 1.0262052978581655e+00 78 -27 -52
368 1 1.2859445075611040e+00 2.3911966598704595e+01 7.7127559292321317e+00 46 -23 28
241 1 2.0820579603517975e+00 1.2966615304610974e+01 3.2970673354258881e+00 10 -110 -31
248 1 7.9125729695039224e+00 1.9527136286578035e+01 4.8767468323282817e+00 -35 37 1
358 1 2.3163748980305407e+01 2.3176939027142986e+01 5.2581391179126880e-01 -30 93 42
488 1 1.4029149169403180e+01 1.8569594513507653e+01 6.0701601717303477e+00 -13 -14 27
30 1 5.5907626179911070e+00 1.9199740761536248e+01 3.2552457340304723e+00 -74 13 -17
189 1 2.2085205285101033e+01 2.0291924632916086e+01 5.0685056766080583e-01 128 -59 -45
282 1 1.4272329915584471e+01 1.8642543911996064e+01 2.9119471016238303e+00 34 29 89
39 1 1.8449184607467146e+01 2.0301852647387356e+01 4.2203266060839031e+00 0 39 45
346 1 7.9003745519481647e+00 2.3607458139761619e+01 7.2204889930695302e+00 45 33 -121
163 1 1.2005263644652182e+01 1.9183770388774825e+01 7.9883122407612701e+00 -52 -65 3
225 1 1.2661140957196265e+01 1.6010696680456746e+01 8.0342091521222034e+00 32 73 13
142 1 1.6454940918083977e+01 1.9468283505387646e+01 7.5110124472141653e+00 22 15 64
136 1 2.3136959927491695e+01 1.3767753838617493e+01 2.5772097170813866e+00 25 -74 113
263 1 4.8191304854983503e+00 1.5862079804851950e+01 1.7374520196088172e+00 39 146 6
211 1 1.7577963923776409e+01 2.2653679946488651e+01 5.3375023509464299e+00 -36 2 -20
224 1 1.6486464850004452e+01 1.9774038496242362e+01 1.4204433781817727e+00 58 -98 9
119 1 7.5436341007605234e+00 1.8944483153212396e+01 7.5827021902543823e+00 50 71 97
351 1 1.6642065190058275e+01 2.2655178714473074e+01 1.1208166659577166e+00 38 -27 -66
326 1 9.4103640739008210e+00 1.7921767751919283e+01 3.4401248717466184e+00 40 131 -6
88 1 1.2064001249862388e+00 1.4991508431625812e+01 7.7383471091027110e+00 -14 11 66
130 1 2.7490153400283925e+00 1.9212403681015616e+01 5.4316917639864366e+00 -4 -34 12
397 1 1.8643177806408779e+01 1.3743595244639163e+01 3.8796150113324295e+00 -48 54 -42
180 1 1.8670786717579318e+01 1.8246453567500403e+01 7.4830288236304190e+00 8 291 -27
344 1 3.8049049738990535e+00 1.3203388523408988e+01 1.4209323096359576e+00 34 -44 -1
139 1 1.1172840867839209e+01 2.2145064601396740e+01 3.9664356850315037e+00 -15 -9 -20
454 1 2.0857240528207569e+01 1.3990181609796581e+01 7.7214420482055974e+00 -50 58 11
378 1 3.9321974284219094e+00 1.8189815685343113e+01 8.4057690676545604e-01 11 -18 -67
95 1 2.0069859993636257e+01 1.7110376657036007e+01 2.1444016353947939e+00 60 128 -3
223 1 2.0715290556355200e+01 2.0155771340318132e+01 7.7038108068459401e+00 105 33 14
480 1 1.7605796342490621e+01 1.5533126157647375e+01 2.2896972631036578e+00 9 -34 83
66 1 2.4301363744132757e+01 2.1218026031223751e+01 7.9036050102218871e+00 -20 19 -29
186 1 1.1741818521196880e+01 1.4717886454532474e+01 1.3666937130077195e+00 -25 172 37
369 1 1.5552271603132763e+01 1.2833143020975998e+01 6.2837423344433567e+00 1 62 9
73 1 1.0019366892597015e+00 1.3186375984560827e+01 1.0045054496737512e+01 -48 14 17
167 1 5.3751472902491848e+00 1.8909715197097910e+01 1.0769056428667724e+01 24 -26 2
463 1 2.2648243099929950e+01 2.4536828812338683e+01 1.0824155998601725e+01 -37 30 -39
7 1 1.8384140280812218e+01 1.7993904926395992e+01 1.0339800741110727e+01 50 7 54
132 1 6.9986920546390206e+00 1.5188736592248832e+01 1.2092699430293326e+01 -47 -2 -67
36 1 4.6030316289906255e+00 1.6971669093191629e+01 9.0573405975879826e+00 109 70 115
465 1 1.2062854376096080e+01 1.7156237141363448e+01 1.6155783655799887e+01 38 22 55