LAMMPS (4 Jan 2019)
# LAMMPS input script
boundary p p p
units       real
atom_style  atomic
atom_modify map array sort 0 0
read_data   data.in
  orthogonal box = (0.108909 0.108909 0.108909) to (24.7261 24.7261 24.7261)
  1 by 2 by 3 MPI processor grid
  reading atoms ...
  512 atoms
  reading velocities ...
  512 velocities
pair_style  sw
pair_coeff  * * mW.sw WT

# ----- Variables -----
variable seed equal 26825
variable T equal 240.0000000000
variable P equal 0.986923 # 1 bar

# ----- Initialize -----
neighbor 2.0 nsq
neigh_modify delay 0 every 1 check yes
timestep 5 # 5 fs   # Fix timestep here

# ----- Log file output -----
thermo       10000
thermo_style    custom  time temp press pe ke lx ly lz density vol
thermo_modify line multi norm yes flush yes format float %.6f

# ----- equilibruate --------
#velocity  all create ${T} ${seed}
fix 1 all npt temp ${T} ${T} 100 iso ${P} ${P} 1000
fix 1 all npt temp 240 ${T} 100 iso ${P} ${P} 1000
fix 1 all npt temp 240 240 100 iso ${P} ${P} 1000
fix 1 all npt temp 240 240 100 iso 0.986923 ${P} 1000
fix 1 all npt temp 240 240 100 iso 0.986923 0.986923 1000
run 1000000 # 5 ns
Neighbor list info ...
  update every 1 steps, delay 0 steps, check yes
  max neighbors/atom: 2000, page size: 100000
  master list distance cutoff = 6.3065
  ghost atom cutoff = 6.3065
  1 neighbor lists, perpetual/occasional/extra = 1 0 0
  (1) pair sw, perpetual
      attributes: full, newton on
      pair build: full/nsq
      stencil: none
      bin: none
Per MPI rank memory allocation (min/avg/max) = 2.696 | 2.697 | 2.697 Mbytes
---------------- Step        0 ----- CPU =      0.0000 (sec) ----------------
Time     = 0.000000 Temp     = 236.337017 Press    = 304.048494 
PotEng   = -10.435447 KinEng   = 0.703100 Lx       = 24.617182 
Ly       = 24.617182 Lz       = 24.617182 Density  = 1.026705 
Volume   = 14918.150828 
---------------- Step    10000 ----- CPU =      5.6789 (sec) ----------------
Time     = 50000.000000 Temp     = 232.366397 Press    = -608.310351 
PotEng   = -10.394457 KinEng   = 0.691287 Lx       = 24.851122 
Ly       = 24.851122 Lz       = 24.851122 Density  = 0.997982 
Volume   = 15347.512065 
---------------- Step    20000 ----- CPU =     11.2531 (sec) ----------------
Time     = 100000.000000 Temp     = 241.985886 Press    = -386.829303 
PotEng   = -10.456764 KinEng   = 0.719905 Lx       = 24.746046 
Ly       = 24.746046 Lz       = 24.746046 Density  = 1.010748 
Volume   = 15153.657012 
---------------- Step    30000 ----- CPU =     16.8040 (sec) ----------------
Time     = 150000.000000 Temp     = 238.025867 Press    = 192.163477 
PotEng   = -10.453891 KinEng   = 0.708124 Lx       = 24.753101 
Ly       = 24.753101 Lz       = 24.753101 Density  = 1.009884 
Volume   = 15166.620768 
---------------- Step    40000 ----- CPU =     22.7800 (sec) ----------------
Time     = 200000.000000 Temp     = 230.679569 Press    = 107.979461 
PotEng   = -10.422377 KinEng   = 0.686269 Lx       = 24.771791 
Ly       = 24.771791 Lz       = 24.771791 Density  = 1.007600 
Volume   = 15201.001832 
---------------- Step    50000 ----- CPU =     29.0348 (sec) ----------------
Time     = 250000.000000 Temp     = 248.135187 Press    = 223.351090 
PotEng   = -10.398637 KinEng   = 0.738199 Lx       = 24.834173 
Ly       = 24.834173 Lz       = 24.834173 Density  = 1.000026 
Volume   = 15316.133060 
---------------- Step    60000 ----- CPU =     35.3303 (sec) ----------------
Time     = 300000.000000 Temp     = 241.116003 Press    = 15.669087 
PotEng   = -10.411794 KinEng   = 0.717317 Lx       = 24.826633 
Ly       = 24.826633 Lz       = 24.826633 Density  = 1.000938 
Volume   = 15302.185662 
---------------- Step    70000 ----- CPU =     41.6301 (sec) ----------------
Time     = 350000.000000 Temp     = 249.728377 Press    = 346.435612 
PotEng   = -10.369611 KinEng   = 0.742939 Lx       = 24.706497 
Ly       = 24.706497 Lz       = 24.706497 Density  = 1.015610 
Volume   = 15081.118079 
---------------- Step    80000 ----- CPU =     47.9089 (sec) ----------------
Time     = 400000.000000 Temp     = 240.330304 Press    = -254.908496 
PotEng   = -10.405779 KinEng   = 0.714980 Lx       = 24.792464 
Ly       = 24.792464 Lz       = 24.792464 Density  = 1.005082 
Volume   = 15239.091663 
---------------- Step    90000 ----- CPU =     54.2456 (sec) ----------------
Time     = 450000.000000 Temp     = 256.725978 Press    = -646.597888 
PotEng   = -10.433842 KinEng   = 0.763757 Lx       = 24.749862 
Ly       = 24.749862 Lz       = 24.749862 Density  = 1.010281 
Volume   = 15160.668826 
---------------- Step   100000 ----- CPU =     60.4867 (sec) ----------------
Time     = 500000.000000 Temp     = 234.376613 Press    = 721.452986 
PotEng   = -10.357106 KinEng   = 0.697268 Lx       = 24.828624 
Ly       = 24.828624 Lz       = 24.828624 Density  = 1.000697 
Volume   = 15305.867273 
---------------- Step   110000 ----- CPU =     66.7826 (sec) ----------------
Time     = 550000.000000 Temp     = 222.660832 Press    = 1335.083940 
PotEng   = -10.428123 KinEng   = 0.662413 Lx       = 24.620010 
Ly       = 24.620010 Lz       = 24.620010 Density  = 1.026351 
Volume   = 14923.292936 
---------------- Step   120000 ----- CPU =     73.0947 (sec) ----------------
Time     = 600000.000000 Temp     = 249.209114 Press    = -729.271156 
PotEng   = -10.334750 KinEng   = 0.741394 Lx       = 24.834262 
Ly       = 24.834262 Lz       = 24.834262 Density  = 1.000016 
Volume   = 15316.297182 
---------------- Step   130000 ----- CPU =     79.4210 (sec) ----------------
Time     = 650000.000000 Temp     = 249.988369 Press    = -647.456334 
PotEng   = -10.421927 KinEng   = 0.743712 Lx       = 24.846627 
Ly       = 24.846627 Lz       = 24.846627 Density  = 0.998523 
Volume   = 15339.186804 
---------------- Step   140000 ----- CPU =     85.7529 (sec) ----------------
Time     = 700000.000000 Temp     = 244.800089 Press    = 85.082679 
PotEng   = -10.337168 KinEng   = 0.728277 Lx       = 24.822054 
Ly       = 24.822054 Lz       = 24.822054 Density  = 1.001492 
Volume   = 15293.719583 
---------------- Step   150000 ----- CPU =     91.9976 (sec) ----------------
Time     = 750000.000000 Temp     = 238.935530 Press    = -312.887679 
PotEng   = -10.441944 KinEng   = 0.710830 Lx       = 24.815965 
Ly       = 24.815965 Lz       = 24.815965 Density  = 1.002229 
Volume   = 15282.467504 
---------------- Step   160000 ----- CPU =     98.2729 (sec) ----------------
Time     = 800000.000000 Temp     = 244.014972 Press    = 279.854702 
PotEng   = -10.389117 KinEng   = 0.725942 Lx       = 24.829200 
Ly       = 24.829200 Lz       = 24.829200 Density  = 1.000627 
Volume   = 15306.932438 
---------------- Step   170000 ----- CPU =    104.5224 (sec) ----------------
Time     = 850000.000000 Temp     = 237.454349 Press    = -442.308477 
PotEng   = -10.421352 KinEng   = 0.706424 Lx       = 24.853165 
Ly       = 24.853165 Lz       = 24.853165 Density  = 0.997735 
Volume   = 15351.298109 
---------------- Step   180000 ----- CPU =    110.7317 (sec) ----------------
Time     = 900000.000000 Temp     = 238.465909 Press    = 1227.848944 
PotEng   = -10.408977 KinEng   = 0.709433 Lx       = 24.700099 
Ly       = 24.700099 Lz       = 24.700099 Density  = 1.016399 
Volume   = 15069.404161 
---------------- Step   190000 ----- CPU =    117.0469 (sec) ----------------
Time     = 950000.000000 Temp     = 245.245979 Press    = 437.942992 
PotEng   = -10.309535 KinEng   = 0.729604 Lx       = 24.711153 
Ly       = 24.711153 Lz       = 24.711153 Density  = 1.015036 
Volume   = 15089.644761 
---------------- Step   200000 ----- CPU =    123.3399 (sec) ----------------
Time     = 1000000.000000 Temp     = 232.912645 Press    = 372.182168 
PotEng   = -10.422284 KinEng   = 0.692912 Lx       = 24.821619 
Ly       = 24.821619 Lz       = 24.821619 Density  = 1.001544 
Volume   = 15292.916214 
---------------- Step   210000 ----- CPU =    129.6117 (sec) ----------------
Time     = 1050000.000000 Temp     = 248.054130 Press    = -967.395049 
PotEng   = -10.381045 KinEng   = 0.737958 Lx       = 24.876551 
Ly       = 24.876551 Lz       = 24.876551 Density  = 0.994924 
Volume   = 15394.674084 
---------------- Step   220000 ----- CPU =    135.8284 (sec) ----------------
Time     = 1100000.000000 Temp     = 247.697911 Press    = -591.032329 
PotEng   = -10.393779 KinEng   = 0.736898 Lx       = 24.906788 
Ly       = 24.906788 Lz       = 24.906788 Density  = 0.991305 
Volume   = 15450.878033 
---------------- Step   230000 ----- CPU =    142.0893 (sec) ----------------
Time     = 1150000.000000 Temp     = 226.513387 Press    = -350.203399 
PotEng   = -10.427470 KinEng   = 0.673875 Lx       = 24.947346 
Ly       = 24.947346 Lz       = 24.947346 Density  = 0.986478 
Volume   = 15526.481298 
---------------- Step   240000 ----- CPU =    148.3691 (sec) ----------------
Time     = 1200000.000000 Temp     = 246.524488 Press    = 13.353783 
PotEng   = -10.398114 KinEng   = 0.733407 Lx       = 24.796795 
Ly       = 24.796795 Lz       = 24.796795 Density  = 1.004555 
Volume   = 15247.078717 
---------------- Step   250000 ----- CPU =    154.6936 (sec) ----------------
Time     = 1250000.000000 Temp     = 242.738105 Press    = 327.970972 
PotEng   = -10.426549 KinEng   = 0.722143 Lx       = 24.727502 
Ly       = 24.727502 Lz       = 24.727502 Density  = 1.013024 
Volume   = 15119.615398 
---------------- Step   260000 ----- CPU =    160.9716 (sec) ----------------
Time     = 1300000.000000 Temp     = 242.215787 Press    = 421.287822 
PotEng   = -10.433073 KinEng   = 0.720589 Lx       = 24.829365 
Ly       = 24.829365 Lz       = 24.829365 Density  = 1.000607 
Volume   = 15307.237263 
---------------- Step   270000 ----- CPU =    167.2654 (sec) ----------------
Time     = 1350000.000000 Temp     = 218.416854 Press    = -1758.682220 
PotEng   = -10.434980 KinEng   = 0.649788 Lx       = 24.863100 
Ly       = 24.863100 Lz       = 24.863100 Density  = 0.996540 
Volume   = 15369.715400 
---------------- Step   280000 ----- CPU =    173.5895 (sec) ----------------
Time     = 1400000.000000 Temp     = 230.504240 Press    = 84.655007 
PotEng   = -10.404822 KinEng   = 0.685747 Lx       = 24.800663 
Ly       = 24.800663 Lz       = 24.800663 Density  = 1.004085 
Volume   = 15254.215667 
---------------- Step   290000 ----- CPU =    179.8612 (sec) ----------------
Time     = 1450000.000000 Temp     = 241.065645 Press    = 204.256001 
PotEng   = -10.348951 KinEng   = 0.717167 Lx       = 24.741910 
Ly       = 24.741910 Lz       = 24.741910 Density  = 1.011255 
Volume   = 15146.060486 
---------------- Step   300000 ----- CPU =    186.1282 (sec) ----------------
Time     = 1500000.000000 Temp     = 240.238477 Press    = -363.949347 
PotEng   = -10.495783 KinEng   = 0.714707 Lx       = 24.865715 
Ly       = 24.865715 Lz       = 24.865715 Density  = 0.996226 
Volume   = 15374.565654 
---------------- Step   310000 ----- CPU =    192.3664 (sec) ----------------
Time     = 1550000.000000 Temp     = 241.820360 Press    = -862.666031 
PotEng   = -10.412160 KinEng   = 0.719413 Lx       = 24.821228 
Ly       = 24.821228 Lz       = 24.821228 Density  = 1.001592 
Volume   = 15292.192885 
---------------- Step   320000 ----- CPU =    198.6999 (sec) ----------------
Time     = 1600000.000000 Temp     = 251.212990 Press    = -585.266803 
PotEng   = -10.446993 KinEng   = 0.747356 Lx       = 24.829632 
Ly       = 24.829632 Lz       = 24.829632 Density  = 1.000575 
Volume   = 15307.732142 
---------------- Step   330000 ----- CPU =    204.8682 (sec) ----------------
Time     = 1650000.000000 Temp     = 238.387381 Press    = -935.749688 
PotEng   = -10.434966 KinEng   = 0.709200 Lx       = 24.831161 
Ly       = 24.831161 Lz       = 24.831161 Density  = 1.000390 
Volume   = 15310.559334 
---------------- Step   340000 ----- CPU =    211.1342 (sec) ----------------
Time     = 1700000.000000 Temp     = 248.888365 Press    = -207.952526 
PotEng   = -10.350210 KinEng   = 0.740440 Lx       = 24.820377 
Ly       = 24.820377 Lz       = 24.820377 Density  = 1.001695 
Volume   = 15290.620878 
---------------- Step   350000 ----- CPU =    217.3711 (sec) ----------------
Time     = 1750000.000000 Temp     = 238.486912 Press    = -102.065114 
PotEng   = -10.410768 KinEng   = 0.709496 Lx       = 24.846031 
Ly       = 24.846031 Lz       = 24.846031 Density  = 0.998595 
Volume   = 15338.082860 
---------------- Step   360000 ----- CPU =    223.6192 (sec) ----------------
Time     = 1800000.000000 Temp     = 241.666927 Press    = 101.862673 
PotEng   = -10.477977 KinEng   = 0.718956 Lx       = 24.853156 
Ly       = 24.853156 Lz       = 24.853156 Density  = 0.997737 
Volume   = 15351.280791 
---------------- Step   370000 ----- CPU =    229.9305 (sec) ----------------
Time     = 1850000.000000 Temp     = 240.226259 Press    = -514.434463 
PotEng   = -10.416650 KinEng   = 0.714670 Lx       = 24.824542 
Ly       = 24.824542 Lz       = 24.824542 Density  = 1.001191 
Volume   = 15298.319984 
---------------- Step   380000 ----- CPU =    236.2097 (sec) ----------------
Time     = 1900000.000000 Temp     = 231.742182 Press    = 91.915433 
PotEng   = -10.395405 KinEng   = 0.689430 Lx       = 24.791930 
Ly       = 24.791930 Lz       = 24.791930 Density  = 1.005147 
Volume   = 15238.106836 
---------------- Step   390000 ----- CPU =    242.5181 (sec) ----------------
Time     = 1950000.000000 Temp     = 242.137498 Press    = 592.112917 
PotEng   = -10.381600 KinEng   = 0.720356 Lx       = 24.744467 
Ly       = 24.744467 Lz       = 24.744467 Density  = 1.010942 
Volume   = 15150.755877 
---------------- Step   400000 ----- CPU =    248.7700 (sec) ----------------
Time     = 2000000.000000 Temp     = 257.357788 Press    = 791.217552 
PotEng   = -10.414982 KinEng   = 0.765636 Lx       = 24.806069 
Ly       = 24.806069 Lz       = 24.806069 Density  = 1.003429 
Volume   = 15264.193114 
---------------- Step   410000 ----- CPU =    255.0599 (sec) ----------------
Time     = 2050000.000000 Temp     = 249.343745 Press    = -182.976310 
PotEng   = -10.414608 KinEng   = 0.741795 Lx       = 24.751406 
Ly       = 24.751406 Lz       = 24.751406 Density  = 1.010092 
Volume   = 15163.505339 
---------------- Step   420000 ----- CPU =    261.3868 (sec) ----------------
Time     = 2100000.000000 Temp     = 247.280130 Press    = 489.966637 
PotEng   = -10.430064 KinEng   = 0.735655 Lx       = 24.782991 
Ly       = 24.782991 Lz       = 24.782991 Density  = 1.006235 
Volume   = 15221.629992 
---------------- Step   430000 ----- CPU =    267.7125 (sec) ----------------
Time     = 2150000.000000 Temp     = 240.186905 Press    = 348.801204 
PotEng   = -10.471598 KinEng   = 0.714553 Lx       = 24.804827 
Ly       = 24.804827 Lz       = 24.804827 Density  = 1.003580 
Volume   = 15261.900537 
---------------- Step   440000 ----- CPU =    274.0538 (sec) ----------------
Time     = 2200000.000000 Temp     = 245.372271 Press    = -74.677431 
PotEng   = -10.367467 KinEng   = 0.729980 Lx       = 24.822763 
Ly       = 24.822763 Lz       = 24.822763 Density  = 1.001406 
Volume   = 15295.030903 
---------------- Step   450000 ----- CPU =    280.2945 (sec) ----------------
Time     = 2250000.000000 Temp     = 253.022313 Press    = 264.891490 
PotEng   = -10.373888 KinEng   = 0.752738 Lx       = 24.810788 
Ly       = 24.810788 Lz       = 24.810788 Density  = 1.002857 
Volume   = 15272.905031 
---------------- Step   460000 ----- CPU =    286.5618 (sec) ----------------
Time     = 2300000.000000 Temp     = 233.392301 Press    = -143.878415 
PotEng   = -10.355882 KinEng   = 0.694339 Lx       = 24.851743 
Ly       = 24.851743 Lz       = 24.851743 Density  = 0.997907 
Volume   = 15348.663618 
---------------- Step   470000 ----- CPU =    292.7670 (sec) ----------------
Time     = 2350000.000000 Temp     = 233.949301 Press    = -241.587351 
PotEng   = -10.390010 KinEng   = 0.695996 Lx       = 24.861595 
Ly       = 24.861595 Lz       = 24.861595 Density  = 0.996721 
Volume   = 15366.923745 
---------------- Step   480000 ----- CPU =    299.0673 (sec) ----------------
Time     = 2400000.000000 Temp     = 232.809312 Press    = 529.732130 
PotEng   = -10.378071 KinEng   = 0.692605 Lx       = 24.742202 
Ly       = 24.742202 Lz       = 24.742202 Density  = 1.011220 
Volume   = 15146.596274 
---------------- Step   490000 ----- CPU =    305.3318 (sec) ----------------
Time     = 2450000.000000 Temp     = 236.188711 Press    = 1044.074877 
PotEng   = -10.354594 KinEng   = 0.702659 Lx       = 24.750772 
Ly       = 24.750772 Lz       = 24.750772 Density  = 1.010170 
Volume   = 15162.340185 
---------------- Step   500000 ----- CPU =    311.5985 (sec) ----------------
Time     = 2500000.000000 Temp     = 240.555407 Press    = -66.196495 
PotEng   = -10.436706 KinEng   = 0.715649 Lx       = 24.833638 
Ly       = 24.833638 Lz       = 24.833638 Density  = 1.000091 
Volume   = 15315.141690 
---------------- Step   510000 ----- CPU =    317.8737 (sec) ----------------
Time     = 2550000.000000 Temp     = 250.400515 Press    = -327.412784 
PotEng   = -10.465539 KinEng   = 0.744939 Lx       = 24.804449 
Ly       = 24.804449 Lz       = 24.804449 Density  = 1.003626 
Volume   = 15261.202927 
---------------- Step   520000 ----- CPU =    324.2077 (sec) ----------------
Time     = 2600000.000000 Temp     = 231.825797 Press    = 556.784846 
PotEng   = -10.467575 KinEng   = 0.689679 Lx       = 24.750055 
Ly       = 24.750055 Lz       = 24.750055 Density  = 1.010257 
Volume   = 15161.023192 
---------------- Step   530000 ----- CPU =    330.5123 (sec) ----------------
Time     = 2650000.000000 Temp     = 247.425489 Press    = -113.776049 
PotEng   = -10.435346 KinEng   = 0.736088 Lx       = 24.685377 
Ly       = 24.685377 Lz       = 24.685377 Density  = 1.018219 
Volume   = 15042.474714 
---------------- Step   540000 ----- CPU =    336.7533 (sec) ----------------
Time     = 2700000.000000 Temp     = 250.539901 Press    = -493.553777 
PotEng   = -10.389808 KinEng   = 0.745353 Lx       = 24.861848 
Ly       = 24.861848 Lz       = 24.861848 Density  = 0.996690 
Volume   = 15367.394229 
---------------- Step   550000 ----- CPU =    343.0775 (sec) ----------------
Time     = 2750000.000000 Temp     = 235.311140 Press    = 714.460238 
PotEng   = -10.399043 KinEng   = 0.700048 Lx       = 24.793630 
Ly       = 24.793630 Lz       = 24.793630 Density  = 1.004940 
Volume   = 15241.241195 
---------------- Step   560000 ----- CPU =    349.4236 (sec) ----------------
Time     = 2800000.000000 Temp     = 235.190024 Press    = -1094.615305 
PotEng   = -10.323506 KinEng   = 0.699688 Lx       = 24.754888 
Ly       = 24.754888 Lz       = 24.754888 Density  = 1.009666 
Volume   = 15169.906021 
---------------- Step   570000 ----- CPU =    355.7296 (sec) ----------------
Time     = 2850000.000000 Temp     = 236.973842 Press    = -636.990707 
PotEng   = -10.355662 KinEng   = 0.704994 Lx       = 24.826344 
Ly       = 24.826344 Lz       = 24.826344 Density  = 1.000973 
Volume   = 15301.651915 
---------------- Step   580000 ----- CPU =    361.9472 (sec) ----------------
Time     = 2900000.000000 Temp     = 256.609096 Press    = -156.727216 
PotEng   = -10.420160 KinEng   = 0.763409 Lx       = 24.829761 
Ly       = 24.829761 Lz       = 24.829761 Density  = 1.000559 
Volume   = 15307.970731 
---------------- Step   590000 ----- CPU =    368.1761 (sec) ----------------
Time     = 2950000.000000 Temp     = 221.470557 Press    = -94.831837 
PotEng   = -10.444182 KinEng   = 0.658872 Lx       = 24.903613 
Ly       = 24.903613 Lz       = 24.903613 Density  = 0.991684 
Volume   = 15444.970689 
---------------- Step   600000 ----- CPU =    374.4089 (sec) ----------------
Time     = 3000000.000000 Temp     = 243.599320 Press    = 93.418594 
PotEng   = -10.459466 KinEng   = 0.724705 Lx       = 24.819435 
Ly       = 24.819435 Lz       = 24.819435 Density  = 1.001809 
Volume   = 15288.880267 
---------------- Step   610000 ----- CPU =    380.6671 (sec) ----------------
Time     = 3050000.000000 Temp     = 233.345354 Press    = 469.209524 
PotEng   = -10.370325 KinEng   = 0.694200 Lx       = 24.827275 
Ly       = 24.827275 Lz       = 24.827275 Density  = 1.000860 
Volume   = 15303.372691 
---------------- Step   620000 ----- CPU =    386.9392 (sec) ----------------
Time     = 3100000.000000 Temp     = 240.055493 Press    = -36.412653 
PotEng   = -10.330935 KinEng   = 0.714162 Lx       = 24.798719 
Ly       = 24.798719 Lz       = 24.798719 Density  = 1.004322 
Volume   = 15250.629041 
---------------- Step   630000 ----- CPU =    393.2257 (sec) ----------------
Time     = 3150000.000000 Temp     = 233.700207 Press    = 422.343339 
PotEng   = -10.440776 KinEng   = 0.695255 Lx       = 24.666598 
Ly       = 24.666598 Lz       = 24.666598 Density  = 1.020546 
Volume   = 15008.171776 
---------------- Step   640000 ----- CPU =    399.5516 (sec) ----------------
Time     = 3200000.000000 Temp     = 249.296918 Press    = -393.572147 
PotEng   = -10.368432 KinEng   = 0.741655 Lx       = 24.869702 
Ly       = 24.869702 Lz       = 24.869702 Density  = 0.995746 
Volume   = 15381.962069 
---------------- Step   650000 ----- CPU =    405.7864 (sec) ----------------
Time     = 3250000.000000 Temp     = 250.390484 Press    = -170.557909 
PotEng   = -10.388178 KinEng   = 0.744909 Lx       = 24.740069 
Ly       = 24.740069 Lz       = 24.740069 Density  = 1.011481 
Volume   = 15142.678409 
---------------- Step   660000 ----- CPU =    411.9910 (sec) ----------------
Time     = 3300000.000000 Temp     = 232.950666 Press    = -336.643364 
PotEng   = -10.423208 KinEng   = 0.693025 Lx       = 24.776479 
Ly       = 24.776479 Lz       = 24.776479 Density  = 1.007028 
Volume   = 15209.634795 
---------------- Step   670000 ----- CPU =    418.2897 (sec) ----------------
Time     = 3350000.000000 Temp     = 250.661354 Press    = 216.520332 
PotEng   = -10.440509 KinEng   = 0.745715 Lx       = 24.792581 
Ly       = 24.792581 Lz       = 24.792581 Density  = 1.005068 
Volume   = 15239.307780 
---------------- Step   680000 ----- CPU =    424.5515 (sec) ----------------
Time     = 3400000.000000 Temp     = 238.085772 Press    = -345.279128 
PotEng   = -10.386322 KinEng   = 0.708302 Lx       = 24.815041 
Ly       = 24.815041 Lz       = 24.815041 Density  = 1.002341 
Volume   = 15280.761558 
---------------- Step   690000 ----- CPU =    430.9326 (sec) ----------------
Time     = 3450000.000000 Temp     = 231.074829 Press    = 831.707230 
PotEng   = -10.371258 KinEng   = 0.687445 Lx       = 24.841168 
Ly       = 24.841168 Lz       = 24.841168 Density  = 0.999182 
Volume   = 15329.078894 
---------------- Step   700000 ----- CPU =    437.1820 (sec) ----------------
Time     = 3500000.000000 Temp     = 238.053235 Press    = 378.385903 
PotEng   = -10.451832 KinEng   = 0.708206 Lx       = 24.796631 
Ly       = 24.796631 Lz       = 24.796631 Density  = 1.004575 
Volume   = 15246.777414 
---------------- Step   710000 ----- CPU =    443.4278 (sec) ----------------
Time     = 3550000.000000 Temp     = 229.390172 Press    = -249.058996 
PotEng   = -10.377627 KinEng   = 0.682433 Lx       = 24.750779 
Ly       = 24.750779 Lz       = 24.750779 Density  = 1.010169 
Volume   = 15162.354323 
---------------- Step   720000 ----- CPU =    449.7299 (sec) ----------------
Time     = 3600000.000000 Temp     = 236.233488 Press    = -768.282089 
PotEng   = -10.441328 KinEng   = 0.702792 Lx       = 24.907855 
Ly       = 24.907855 Lz       = 24.907855 Density  = 0.991178 
Volume   = 15452.864602 
---------------- Step   730000 ----- CPU =    455.9823 (sec) ----------------
Time     = 3650000.000000 Temp     = 242.691060 Press    = 179.313620 
PotEng   = -10.388512 KinEng   = 0.722003 Lx       = 24.777741 
Ly       = 24.777741 Lz       = 24.777741 Density  = 1.006875 
Volume   = 15211.958429 
---------------- Step   740000 ----- CPU =    462.1593 (sec) ----------------
Time     = 3700000.000000 Temp     = 240.486586 Press    = 580.352526 
PotEng   = -10.401092 KinEng   = 0.715445 Lx       = 24.839413 
Ly       = 24.839413 Lz       = 24.839413 Density  = 0.999393 
Volume   = 15325.830203 
---------------- Step   750000 ----- CPU =    468.3374 (sec) ----------------
Time     = 3750000.000000 Temp     = 240.857937 Press    = 410.205060 
PotEng   = -10.420289 KinEng   = 0.716550 Lx       = 24.786893 
Ly       = 24.786893 Lz       = 24.786893 Density  = 1.005760 
Volume   = 15228.821514 
---------------- Step   760000 ----- CPU =    474.5534 (sec) ----------------
Time     = 3800000.000000 Temp     = 238.490492 Press    = 431.925007 
PotEng   = -10.421539 KinEng   = 0.709506 Lx       = 24.749757 
Ly       = 24.749757 Lz       = 24.749757 Density  = 1.010294 
Volume   = 15160.476035 
---------------- Step   770000 ----- CPU =    480.8510 (sec) ----------------
Time     = 3850000.000000 Temp     = 265.240988 Press    = 225.006420 
PotEng   = -10.402675 KinEng   = 0.789089 Lx       = 24.744125 
Ly       = 24.744125 Lz       = 24.744125 Density  = 1.010984 
Volume   = 15150.127316 
---------------- Step   780000 ----- CPU =    487.1556 (sec) ----------------
Time     = 3900000.000000 Temp     = 245.509056 Press    = -220.700208 
PotEng   = -10.325333 KinEng   = 0.730387 Lx       = 24.824721 
Ly       = 24.824721 Lz       = 24.824721 Density  = 1.001169 
Volume   = 15298.650759 
---------------- Step   790000 ----- CPU =    493.4209 (sec) ----------------
Time     = 3950000.000000 Temp     = 245.606742 Press    = 820.112889 
PotEng   = -10.384421 KinEng   = 0.730677 Lx       = 24.764955 
Ly       = 24.764955 Lz       = 24.764955 Density  = 1.008435 
Volume   = 15188.420307 
---------------- Step   800000 ----- CPU =    499.6540 (sec) ----------------
Time     = 4000000.000000 Temp     = 253.048573 Press    = 364.913179 
PotEng   = -10.485037 KinEng   = 0.752817 Lx       = 24.783375 
Ly       = 24.783375 Lz       = 24.783375 Density  = 1.006188 
Volume   = 15222.338035 
---------------- Step   810000 ----- CPU =    505.8728 (sec) ----------------
Time     = 4050000.000000 Temp     = 250.531558 Press    = -22.349773 
PotEng   = -10.398761 KinEng   = 0.745328 Lx       = 24.728076 
Ly       = 24.728076 Lz       = 24.728076 Density  = 1.012954 
Volume   = 15120.668403 
---------------- Step   820000 ----- CPU =    512.1145 (sec) ----------------
Time     = 4100000.000000 Temp     = 239.437002 Press    = 714.713145 
PotEng   = -10.426638 KinEng   = 0.712322 Lx       = 24.798517 
Ly       = 24.798517 Lz       = 24.798517 Density  = 1.004346 
Volume   = 15250.254975 
---------------- Step   830000 ----- CPU =    518.3553 (sec) ----------------
Time     = 4150000.000000 Temp     = 232.541138 Press    = -176.220772 
PotEng   = -10.392696 KinEng   = 0.691807 Lx       = 24.839498 
Ly       = 24.839498 Lz       = 24.839498 Density  = 0.999383 
Volume   = 15325.986848 
---------------- Step   840000 ----- CPU =    524.6999 (sec) ----------------
Time     = 4200000.000000 Temp     = 248.953577 Press    = 369.797549 
PotEng   = -10.420028 KinEng   = 0.740634 Lx       = 24.834070 
Ly       = 24.834070 Lz       = 24.834070 Density  = 1.000039 
Volume   = 15315.941084 
---------------- Step   850000 ----- CPU =    530.9550 (sec) ----------------
Time     = 4250000.000000 Temp     = 229.492621 Press    = 160.647528 
PotEng   = -10.348901 KinEng   = 0.682738 Lx       = 24.759910 
Ly       = 24.759910 Lz       = 24.759910 Density  = 1.009051 
Volume   = 15179.141335 
---------------- Step   860000 ----- CPU =    537.2642 (sec) ----------------
Time     = 4300000.000000 Temp     = 238.778651 Press    = 4.198672 
PotEng   = -10.386493 KinEng   = 0.710364 Lx       = 24.789684 
Ly       = 24.789684 Lz       = 24.789684 Density  = 1.005420 
Volume   = 15233.965975 
---------------- Step   870000 ----- CPU =    543.4971 (sec) ----------------
Time     = 4350000.000000 Temp     = 227.828025 Press    = 402.813232 
PotEng   = -10.383619 KinEng   = 0.677786 Lx       = 24.896799 
Ly       = 24.896799 Lz       = 24.896799 Density  = 0.992499 
Volume   = 15432.296051 
---------------- Step   880000 ----- CPU =    549.7638 (sec) ----------------
Time     = 4400000.000000 Temp     = 236.406728 Press    = -547.345871 
PotEng   = -10.429258 KinEng   = 0.703307 Lx       = 24.786851 
Ly       = 24.786851 Lz       = 24.786851 Density  = 1.005765 
Volume   = 15228.742593 
---------------- Step   890000 ----- CPU =    556.0184 (sec) ----------------
Time     = 4450000.000000 Temp     = 236.299556 Press    = 380.635188 
PotEng   = -10.476595 KinEng   = 0.702988 Lx       = 24.879518 
Ly       = 24.879518 Lz       = 24.879518 Density  = 0.994568 
Volume   = 15400.183742 
---------------- Step   900000 ----- CPU =    562.2104 (sec) ----------------
Time     = 4500000.000000 Temp     = 242.501831 Press    = -41.189751 
PotEng   = -10.414636 KinEng   = 0.721440 Lx       = 24.701886 
Ly       = 24.701886 Lz       = 24.701886 Density  = 1.016179 
Volume   = 15072.674871 
---------------- Step   910000 ----- CPU =    568.5371 (sec) ----------------
Time     = 4550000.000000 Temp     = 238.201821 Press    = 263.812443 
PotEng   = -10.330803 KinEng   = 0.708648 Lx       = 24.790429 
Ly       = 24.790429 Lz       = 24.790429 Density  = 1.005329 
Volume   = 15235.338283 
---------------- Step   920000 ----- CPU =    574.8112 (sec) ----------------
Time     = 4600000.000000 Temp     = 252.961722 Press    = 767.844386 
PotEng   = -10.448699 KinEng   = 0.752558 Lx       = 24.710979 
Ly       = 24.710979 Lz       = 24.710979 Density  = 1.015057 
Volume   = 15089.327197 
---------------- Step   930000 ----- CPU =    581.1117 (sec) ----------------
Time     = 4650000.000000 Temp     = 255.139707 Press    = -315.591220 
PotEng   = -10.463035 KinEng   = 0.759038 Lx       = 24.786467 
Ly       = 24.786467 Lz       = 24.786467 Density  = 1.005812 
Volume   = 15228.035177 
---------------- Step   940000 ----- CPU =    587.3273 (sec) ----------------
Time     = 4700000.000000 Temp     = 247.602359 Press    = -320.582101 
PotEng   = -10.430732 KinEng   = 0.736614 Lx       = 24.898675 
Ly       = 24.898675 Lz       = 24.898675 Density  = 0.992275 
Volume   = 15435.783760 
---------------- Step   950000 ----- CPU =    593.5687 (sec) ----------------
Time     = 4750000.000000 Temp     = 232.604134 Press    = -129.321369 
PotEng   = -10.324480 KinEng   = 0.691995 Lx       = 24.792321 
Ly       = 24.792321 Lz       = 24.792321 Density  = 1.005099 
Volume   = 15238.828072 
---------------- Step   960000 ----- CPU =    599.8428 (sec) ----------------
Time     = 4800000.000000 Temp     = 227.566845 Press    = 870.011506 
PotEng   = -10.296988 KinEng   = 0.677009 Lx       = 24.753870 
Ly       = 24.753870 Lz       = 24.753870 Density  = 1.009790 
Volume   = 15168.035238 
---------------- Step   970000 ----- CPU =    606.0754 (sec) ----------------
Time     = 4850000.000000 Temp     = 245.289451 Press    = 630.067656 
PotEng   = -10.419124 KinEng   = 0.729733 Lx       = 24.725263 
Ly       = 24.725263 Lz       = 24.725263 Density  = 1.013299 
Volume   = 15115.509105 
---------------- Step   980000 ----- CPU =    612.2945 (sec) ----------------
Time     = 4900000.000000 Temp     = 236.095321 Press    = 425.779541 
PotEng   = -10.348270 KinEng   = 0.702381 Lx       = 24.786291 
Ly       = 24.786291 Lz       = 24.786291 Density  = 1.005833 
Volume   = 15227.711604 
---------------- Step   990000 ----- CPU =    618.5313 (sec) ----------------
Time     = 4950000.000000 Temp     = 237.288079 Press    = -537.236347 
PotEng   = -10.376662 KinEng   = 0.705929 Lx       = 24.882156 
Ly       = 24.882156 Lz       = 24.882156 Density  = 0.994252 
Volume   = 15405.082239 
---------------- Step  1000000 ----- CPU =    624.7479 (sec) ----------------
Time     = 5000000.000000 Temp     = 240.201258 Press    = 1268.840176 
PotEng   = -10.397267 KinEng   = 0.714596 Lx       = 24.726721 
Ly       = 24.726721 Lz       = 24.726721 Density  = 1.013120 
Volume   = 15118.182267 
Loop time of 624.748 on 6 procs for 1000000 steps with 512 atoms

Performance: 691.479 ns/day, 0.035 hours/ns, 1600.645 timesteps/s
97.0% CPU use with 6 MPI tasks x no OpenMP threads

MPI task timing breakdown:
Section |  min time  |  avg time  |  max time  |%varavg| %total
---------------------------------------------------------------
Pair    | 524.26     | 526.39     | 530.88     |  10.5 | 84.26
Neigh   | 14.127     | 14.163     | 14.209     |   0.8 |  2.27
Comm    | 65.62      | 70.368     | 72.595     |  30.4 | 11.26
Output  | 0.0024722  | 0.0045133  | 0.014667   |   6.8 |  0.00
Modify  | 11.116     | 11.379     | 11.535     |   4.3 |  1.82
Other   |            | 2.44       |            |       |  0.39

Nlocal:    85.3333 ave 92 max 79 min
Histogram: 1 1 0 0 1 1 0 1 0 1
Nghost:    573 ave 581 max 564 min
Histogram: 1 1 0 0 0 1 0 2 0 1
Neighs:    0 ave 0 max 0 min
Histogram: 6 0 0 0 0 0 0 0 0 0
FullNghs:  2902.67 ave 3106 max 2684 min
Histogram: 2 0 0 0 0 2 0 0 1 1

Total # of neighbors = 17416
Ave neighs/atom = 34.0156
Neighbor list builds = 56660
Dangerous builds = 0
#reset_timestep 0
#unfix 1  # Remove the fix (important!)

# ---- Custom dump ----
# Easier to analyze than LAMMP's log file

variable        engtot equal etotal
variable        utotal equal pe
variable        cellx equal lx
variable        kintemp equal temp
variable        virpress equal press
variable        massdensity equal density
variable 		volume equal vol

fix             thermodata all print 1000 "${massdensity}" file "Ref.density" screen no


# DCD trajectory (every 0.5 ps)
#dump            1 all dcd 5000 traj.dcd

# ----- Temperature/Pressure Controls -----
fix 1 all npt temp ${T} ${T} 100 iso ${P} ${P} 1000
fix 1 all npt temp 240 ${T} 100 iso ${P} ${P} 1000
fix 1 all npt temp 240 240 100 iso ${P} ${P} 1000
fix 1 all npt temp 240 240 100 iso 0.986923 ${P} 1000
fix 1 all npt temp 240 240 100 iso 0.986923 0.986923 1000

run 4000000  # production 20 ns
Per MPI rank memory allocation (min/avg/max) = 2.945 | 2.945 | 2.945 Mbytes
---------------- Step  1000000 ----- CPU =      0.0000 (sec) ----------------
Time     = 5000000.000000 Temp     = 240.201258 Press    = 1268.840176 
PotEng   = -10.397267 KinEng   = 0.714596 Lx       = 24.726721 
Ly       = 24.726721 Lz       = 24.726721 Density  = 1.013120 
Volume   = 15118.182267 
---------------- Step  1010000 ----- CPU =      6.2446 (sec) ----------------
Time     = 5050000.000000 Temp     = 228.016106 Press    = -368.124418 
PotEng   = -10.481725 KinEng   = 0.678345 Lx       = 24.779332 
Ly       = 24.779332 Lz       = 24.779332 Density  = 1.006681 
Volume   = 15214.889369 
---------------- Step  1020000 ----- CPU =     12.4514 (sec) ----------------
Time     = 5100000.000000 Temp     = 231.342323 Press    = 7.424956 
PotEng   = -10.418713 KinEng   = 0.688241 Lx       = 24.790062 
Ly       = 24.790062 Lz       = 24.790062 Density  = 1.005374 
Volume   = 15234.663030 
---------------- Step  1030000 ----- CPU =     18.7119 (sec) ----------------
Time     = 5150000.000000 Temp     = 239.825263 Press    = -542.936396 
PotEng   = -10.356664 KinEng   = 0.713477 Lx       = 24.945522 
Ly       = 24.945522 Lz       = 24.945522 Density  = 0.986695 
Volume   = 15523.076181 
---------------- Step  1040000 ----- CPU =     25.0367 (sec) ----------------
Time     = 5200000.000000 Temp     = 246.338765 Press    = -648.167844 
PotEng   = -10.474921 KinEng   = 0.732855 Lx       = 24.855124 
Ly       = 24.855124 Lz       = 24.855124 Density  = 0.997500 
Volume   = 15354.929096 
---------------- Step  1050000 ----- CPU =     31.2869 (sec) ----------------
Time     = 5250000.000000 Temp     = 241.544416 Press    = 273.735703 
PotEng   = -10.390712 KinEng   = 0.718592 Lx       = 24.887696 
Ly       = 24.887696 Lz       = 24.887696 Density  = 0.993588 
Volume   = 15415.374567 
---------------- Step  1060000 ----- CPU =     37.5989 (sec) ----------------
Time     = 5300000.000000 Temp     = 230.528509 Press    = 68.419112 
PotEng   = -10.414288 KinEng   = 0.685820 Lx       = 24.762659 
Ly       = 24.762659 Lz       = 24.762659 Density  = 1.008716 
Volume   = 15184.196144 
---------------- Step  1070000 ----- CPU =     43.9380 (sec) ----------------
Time     = 5350000.000000 Temp     = 252.046317 Press    = 897.139848 
PotEng   = -10.515002 KinEng   = 0.749835 Lx       = 24.719420 
Ly       = 24.719420 Lz       = 24.719420 Density  = 1.014018 
Volume   = 15104.794769 
---------------- Step  1080000 ----- CPU =     50.2098 (sec) ----------------
Time     = 5400000.000000 Temp     = 240.802068 Press    = 96.159403 
PotEng   = -10.370878 KinEng   = 0.716383 Lx       = 24.859961 
Ly       = 24.859961 Lz       = 24.859961 Density  = 0.996917 
Volume   = 15363.894766 
---------------- Step  1090000 ----- CPU =     56.4685 (sec) ----------------
Time     = 5450000.000000 Temp     = 251.714920 Press    = -1103.534174 
PotEng   = -10.417498 KinEng   = 0.748849 Lx       = 24.835590 
Ly       = 24.835590 Lz       = 24.835590 Density  = 0.999855 
Volume   = 15318.754223 
---------------- Step  1100000 ----- CPU =     62.7708 (sec) ----------------
Time     = 5500000.000000 Temp     = 237.283176 Press    = 1063.489111 
PotEng   = -10.325029 KinEng   = 0.705915 Lx       = 24.702609 
Ly       = 24.702609 Lz       = 24.702609 Density  = 1.016090 
Volume   = 15073.999066 
---------------- Step  1110000 ----- CPU =     69.1197 (sec) ----------------
Time     = 5550000.000000 Temp     = 252.167549 Press    = 310.669256 
PotEng   = -10.421757 KinEng   = 0.750195 Lx       = 24.819586 
Ly       = 24.819586 Lz       = 24.819586 Density  = 1.001791 
Volume   = 15289.158720 
---------------- Step  1120000 ----- CPU =     75.3566 (sec) ----------------
Time     = 5600000.000000 Temp     = 235.396278 Press    = 208.436130 
PotEng   = -10.410409 KinEng   = 0.700301 Lx       = 24.844488 
Ly       = 24.844488 Lz       = 24.844488 Density  = 0.998781 
Volume   = 15335.225118 
---------------- Step  1130000 ----- CPU =     81.6369 (sec) ----------------
Time     = 5650000.000000 Temp     = 241.889099 Press    = -48.263325 
PotEng   = -10.416154 KinEng   = 0.719617 Lx       = 24.788648 
Ly       = 24.788648 Lz       = 24.788648 Density  = 1.005546 
Volume   = 15232.056173 
---------------- Step  1140000 ----- CPU =     87.9014 (sec) ----------------
Time     = 5700000.000000 Temp     = 238.152472 Press    = 1037.953054 
PotEng   = -10.469013 KinEng   = 0.708501 Lx       = 24.740571 
Ly       = 24.740571 Lz       = 24.740571 Density  = 1.011420 
Volume   = 15143.601121 
---------------- Step  1150000 ----- CPU =     94.1769 (sec) ----------------
Time     = 5750000.000000 Temp     = 241.498404 Press    = -1141.803063 
PotEng   = -10.431043 KinEng   = 0.718455 Lx       = 24.856261 
Ly       = 24.856261 Lz       = 24.856261 Density  = 0.997363 
Volume   = 15357.035292 
---------------- Step  1160000 ----- CPU =    100.3870 (sec) ----------------
Time     = 5800000.000000 Temp     = 255.742581 Press    = 368.008220 
PotEng   = -10.448196 KinEng   = 0.760831 Lx       = 24.779467 
Ly       = 24.779467 Lz       = 24.779467 Density  = 1.006664 
Volume   = 15215.138098 
---------------- Step  1170000 ----- CPU =    106.6270 (sec) ----------------
Time     = 5850000.000000 Temp     = 238.435729 Press    = 369.132501 
PotEng   = -10.365002 KinEng   = 0.709343 Lx       = 24.792791 
Ly       = 24.792791 Lz       = 24.792791 Density  = 1.005042 
Volume   = 15239.695125 
---------------- Step  1180000 ----- CPU =    112.9003 (sec) ----------------
Time     = 5900000.000000 Temp     = 235.324114 Press    = 951.098598 
PotEng   = -10.466313 KinEng   = 0.700086 Lx       = 24.834885 
Ly       = 24.834885 Lz       = 24.834885 Density  = 0.999940 
Volume   = 15317.448886 
---------------- Step  1190000 ----- CPU =    119.2169 (sec) ----------------
Time     = 5950000.000000 Temp     = 241.795377 Press    = -176.446348 
PotEng   = -10.442744 KinEng   = 0.719338 Lx       = 24.758379 
Ly       = 24.758379 Lz       = 24.758379 Density  = 1.009239 
Volume   = 15176.324742 
---------------- Step  1200000 ----- CPU =    125.5593 (sec) ----------------
Time     = 6000000.000000 Temp     = 248.999177 Press    = -1270.805906 
PotEng   = -10.418488 KinEng   = 0.740770 Lx       = 24.914913 
Ly       = 24.914913 Lz       = 24.914913 Density  = 0.990336 
Volume   = 15466.003706 
---------------- Step  1210000 ----- CPU =    131.7774 (sec) ----------------
Time     = 6050000.000000 Temp     = 242.840640 Press    = -485.790686 
PotEng   = -10.368402 KinEng   = 0.722448 Lx       = 24.839910 
Ly       = 24.839910 Lz       = 24.839910 Density  = 0.999334 
Volume   = 15326.749855 
---------------- Step  1220000 ----- CPU =    138.0300 (sec) ----------------
Time     = 6100000.000000 Temp     = 254.186234 Press    = -485.683902 
PotEng   = -10.356743 KinEng   = 0.756201 Lx       = 24.853806 
Ly       = 24.853806 Lz       = 24.853806 Density  = 0.997658 
Volume   = 15352.486091 
---------------- Step  1230000 ----- CPU =    144.2559 (sec) ----------------
Time     = 6150000.000000 Temp     = 232.667734 Press    = 332.763654 
PotEng   = -10.377128 KinEng   = 0.692184 Lx       = 24.838665 
Ly       = 24.838665 Lz       = 24.838665 Density  = 0.999484 
Volume   = 15324.444156 
---------------- Step  1240000 ----- CPU =    150.3976 (sec) ----------------
Time     = 6200000.000000 Temp     = 248.968947 Press    = 837.444907 
PotEng   = -10.422898 KinEng   = 0.740680 Lx       = 24.803714 
Ly       = 24.803714 Lz       = 24.803714 Density  = 1.003715 
Volume   = 15259.846624 
---------------- Step  1250000 ----- CPU =    156.6428 (sec) ----------------
Time     = 6250000.000000 Temp     = 235.018215 Press    = -655.688802 
PotEng   = -10.405964 KinEng   = 0.699176 Lx       = 24.794167 
Ly       = 24.794167 Lz       = 24.794167 Density  = 1.004875 
Volume   = 15242.231464 
---------------- Step  1260000 ----- CPU =    162.8843 (sec) ----------------
Time     = 6300000.000000 Temp     = 235.713001 Press    = 96.948140 
PotEng   = -10.393596 KinEng   = 0.701243 Lx       = 24.795016 
Ly       = 24.795016 Lz       = 24.795016 Density  = 1.004772 
Volume   = 15243.798690 
---------------- Step  1270000 ----- CPU =    169.1372 (sec) ----------------
Time     = 6350000.000000 Temp     = 234.969307 Press    = 858.222458 
PotEng   = -10.444223 KinEng   = 0.699031 Lx       = 24.704810 
Ly       = 24.704810 Lz       = 24.704810 Density  = 1.015818 
Volume   = 15078.029059 
---------------- Step  1280000 ----- CPU =    175.4036 (sec) ----------------
Time     = 6400000.000000 Temp     = 247.684797 Press    = 845.086545 
PotEng   = -10.404247 KinEng   = 0.736859 Lx       = 24.848735 
Ly       = 24.848735 Lz       = 24.848735 Density  = 0.998269 
Volume   = 15343.090414 
---------------- Step  1290000 ----- CPU =    181.6769 (sec) ----------------
Time     = 6450000.000000 Temp     = 224.140310 Press    = 368.445902 
PotEng   = -10.388604 KinEng   = 0.666815 Lx       = 24.679074 
Ly       = 24.679074 Lz       = 24.679074 Density  = 1.018999 
Volume   = 15030.955738 
---------------- Step  1300000 ----- CPU =    187.9319 (sec) ----------------
Time     = 6500000.000000 Temp     = 237.827744 Press    = 695.017178 
PotEng   = -10.427175 KinEng   = 0.707535 Lx       = 24.706351 
Ly       = 24.706351 Lz       = 24.706351 Density  = 1.015628 
Volume   = 15080.850725 
---------------- Step  1310000 ----- CPU =    194.1727 (sec) ----------------
Time     = 6550000.000000 Temp     = 239.300821 Press    = 1092.139661 
PotEng   = -10.470857 KinEng   = 0.711917 Lx       = 24.746060 
Ly       = 24.746060 Lz       = 24.746060 Density  = 1.010747 
Volume   = 15153.682519 
---------------- Step  1320000 ----- CPU =    200.3761 (sec) ----------------
Time     = 6600000.000000 Temp     = 231.947703 Press    = -789.990038 
PotEng   = -10.393750 KinEng   = 0.690042 Lx       = 24.866569 
Ly       = 24.866569 Lz       = 24.866569 Density  = 0.996123 
Volume   = 15376.150144 
---------------- Step  1330000 ----- CPU =    206.6427 (sec) ----------------
Time     = 6650000.000000 Temp     = 249.306822 Press    = 263.123953 
PotEng   = -10.457689 KinEng   = 0.741685 Lx       = 24.838094 
Ly       = 24.838094 Lz       = 24.838094 Density  = 0.999553 
Volume   = 15323.388517 
---------------- Step  1340000 ----- CPU =    212.8134 (sec) ----------------
Time     = 6700000.000000 Temp     = 238.602968 Press    = -484.603686 
PotEng   = -10.445401 KinEng   = 0.709841 Lx       = 24.841845 
Ly       = 24.841845 Lz       = 24.841845 Density  = 0.999100 
Volume   = 15330.330490 
---------------- Step  1350000 ----- CPU =    219.0960 (sec) ----------------
Time     = 6750000.000000 Temp     = 232.884882 Press    = 221.776763 
PotEng   = -10.381415 KinEng   = 0.692830 Lx       = 24.737156 
Ly       = 24.737156 Lz       = 24.737156 Density  = 1.011838 
Volume   = 15137.331475 
---------------- Step  1360000 ----- CPU =    225.3796 (sec) ----------------
Time     = 6800000.000000 Temp     = 243.912571 Press    = 310.299870 
PotEng   = -10.504194 KinEng   = 0.725637 Lx       = 24.737195 
Ly       = 24.737195 Lz       = 24.737195 Density  = 1.011834 
Volume   = 15137.402054 
---------------- Step  1370000 ----- CPU =    231.6121 (sec) ----------------
Time     = 6850000.000000 Temp     = 239.293493 Press    = 252.811163 
PotEng   = -10.476383 KinEng   = 0.711895 Lx       = 24.792689 
Ly       = 24.792689 Lz       = 24.792689 Density  = 1.005055 
Volume   = 15239.505947 
---------------- Step  1380000 ----- CPU =    237.8667 (sec) ----------------
Time     = 6900000.000000 Temp     = 246.157863 Press    = -279.063092 
PotEng   = -10.407131 KinEng   = 0.732317 Lx       = 24.825086 
Ly       = 24.825086 Lz       = 24.825086 Density  = 1.001125 
Volume   = 15299.325092 
---------------- Step  1390000 ----- CPU =    244.1703 (sec) ----------------
Time     = 6950000.000000 Temp     = 220.058585 Press    = 633.566061 
PotEng   = -10.425623 KinEng   = 0.654672 Lx       = 24.773703 
Ly       = 24.773703 Lz       = 24.773703 Density  = 1.007367 
Volume   = 15204.521515 
---------------- Step  1400000 ----- CPU =    250.4026 (sec) ----------------
Time     = 7000000.000000 Temp     = 248.828768 Press    = -145.503281 
PotEng   = -10.428555 KinEng   = 0.740263 Lx       = 24.853190 
Ly       = 24.853190 Lz       = 24.853190 Density  = 0.997732 
Volume   = 15351.344863 
---------------- Step  1410000 ----- CPU =    256.7220 (sec) ----------------
Time     = 7050000.000000 Temp     = 229.723278 Press    = -290.668738 
PotEng   = -10.424973 KinEng   = 0.683424 Lx       = 24.841109 
Ly       = 24.841109 Lz       = 24.841109 Density  = 0.999189 
Volume   = 15328.969116 
---------------- Step  1420000 ----- CPU =    262.9911 (sec) ----------------
Time     = 7100000.000000 Temp     = 260.608371 Press    = -348.164536 
PotEng   = -10.440202 KinEng   = 0.775307 Lx       = 24.812439 
Ly       = 24.812439 Lz       = 24.812439 Density  = 1.002656 
Volume   = 15275.955592 
---------------- Step  1430000 ----- CPU =    269.2848 (sec) ----------------
Time     = 7150000.000000 Temp     = 240.513399 Press    = -900.408707 
PotEng   = -10.455021 KinEng   = 0.715525 Lx       = 24.890494 
Ly       = 24.890494 Lz       = 24.890494 Density  = 0.993253 
Volume   = 15420.574286 
---------------- Step  1440000 ----- CPU =    275.5798 (sec) ----------------
Time     = 7200000.000000 Temp     = 245.116112 Press    = -316.322759 
PotEng   = -10.463896 KinEng   = 0.729218 Lx       = 24.824163 
Ly       = 24.824163 Lz       = 24.824163 Density  = 1.001237 
Volume   = 15297.618510 
---------------- Step  1450000 ----- CPU =    281.8240 (sec) ----------------
Time     = 7250000.000000 Temp     = 238.705226 Press    = -967.823358 
PotEng   = -10.436632 KinEng   = 0.710145 Lx       = 24.883070 
Ly       = 24.883070 Lz       = 24.883070 Density  = 0.994142 
Volume   = 15406.780195 
---------------- Step  1460000 ----- CPU =    288.0367 (sec) ----------------
Time     = 7300000.000000 Temp     = 233.702450 Press    = 1404.816446 
PotEng   = -10.426559 KinEng   = 0.695262 Lx       = 24.706091 
Ly       = 24.706091 Lz       = 24.706091 Density  = 1.015660 
Volume   = 15080.373938 
---------------- Step  1470000 ----- CPU =    294.3254 (sec) ----------------
Time     = 7350000.000000 Temp     = 250.233327 Press    = -613.792467 
PotEng   = -10.382997 KinEng   = 0.744441 Lx       = 24.882588 
Ly       = 24.882588 Lz       = 24.882588 Density  = 0.994200 
Volume   = 15405.884254 
---------------- Step  1480000 ----- CPU =    300.5459 (sec) ----------------
Time     = 7400000.000000 Temp     = 247.982801 Press    = -463.576655 
PotEng   = -10.410290 KinEng   = 0.737746 Lx       = 24.912468 
Ly       = 24.912468 Lz       = 24.912468 Density  = 0.990627 
Volume   = 15461.451070 
---------------- Step  1490000 ----- CPU =    306.7828 (sec) ----------------
Time     = 7450000.000000 Temp     = 224.697411 Press    = 180.579288 
PotEng   = -10.423438 KinEng   = 0.668472 Lx       = 24.817655 
Ly       = 24.817655 Lz       = 24.817655 Density  = 1.002024 
Volume   = 15285.591149 
---------------- Step  1500000 ----- CPU =    313.0755 (sec) ----------------
Time     = 7500000.000000 Temp     = 236.253261 Press    = -635.547254 
PotEng   = -10.389076 KinEng   = 0.702851 Lx       = 24.853832 
Ly       = 24.853832 Lz       = 24.853832 Density  = 0.997655 
Volume   = 15352.534888 
---------------- Step  1510000 ----- CPU =    319.3545 (sec) ----------------
Time     = 7550000.000000 Temp     = 229.175669 Press    = -640.838714 
PotEng   = -10.391857 KinEng   = 0.681795 Lx       = 24.845197 
Ly       = 24.845197 Lz       = 24.845197 Density  = 0.998696 
Volume   = 15336.538718 
---------------- Step  1520000 ----- CPU =    325.6021 (sec) ----------------
Time     = 7600000.000000 Temp     = 236.593910 Press    = 318.767062 
PotEng   = -10.435746 KinEng   = 0.703864 Lx       = 24.885628 
Ly       = 24.885628 Lz       = 24.885628 Density  = 0.993836 
Volume   = 15411.532731 
---------------- Step  1530000 ----- CPU =    331.8430 (sec) ----------------
Time     = 7650000.000000 Temp     = 224.250039 Press    = -30.286711 
PotEng   = -10.417223 KinEng   = 0.667141 Lx       = 24.780634 
Ly       = 24.780634 Lz       = 24.780634 Density  = 1.006522 
Volume   = 15217.287103 
---------------- Step  1540000 ----- CPU =    338.1237 (sec) ----------------
Time     = 7700000.000000 Temp     = 230.722021 Press    = 1060.829853 
PotEng   = -10.389613 KinEng   = 0.686395 Lx       = 24.765352 
Ly       = 24.765352 Lz       = 24.765352 Density  = 1.008386 
Volume   = 15189.151718 
---------------- Step  1550000 ----- CPU =    344.3845 (sec) ----------------
Time     = 7750000.000000 Temp     = 235.850202 Press    = 326.556358 
PotEng   = -10.468581 KinEng   = 0.701652 Lx       = 24.755808 
Ly       = 24.755808 Lz       = 24.755808 Density  = 1.009553 
Volume   = 15171.598066 
---------------- Step  1560000 ----- CPU =    350.6632 (sec) ----------------
Time     = 7800000.000000 Temp     = 235.968013 Press    = 346.512877 
PotEng   = -10.434350 KinEng   = 0.702002 Lx       = 24.840306 
Ly       = 24.840306 Lz       = 24.840306 Density  = 0.999286 
Volume   = 15327.483236 
---------------- Step  1570000 ----- CPU =    356.8760 (sec) ----------------
Time     = 7850000.000000 Temp     = 240.229945 Press    = -546.779810 
PotEng   = -10.355424 KinEng   = 0.714681 Lx       = 24.837940 
Ly       = 24.837940 Lz       = 24.837940 Density  = 0.999571 
Volume   = 15323.103369 
---------------- Step  1580000 ----- CPU =    363.1225 (sec) ----------------
Time     = 7900000.000000 Temp     = 225.705353 Press    = 579.714153 
PotEng   = -10.501262 KinEng   = 0.671471 Lx       = 24.771812 
Ly       = 24.771812 Lz       = 24.771812 Density  = 1.007598 
Volume   = 15201.041200 
---------------- Step  1590000 ----- CPU =    369.4004 (sec) ----------------
Time     = 7950000.000000 Temp     = 237.961729 Press    = -156.546708 
PotEng   = -10.389498 KinEng   = 0.707933 Lx       = 24.816372 
Ly       = 24.816372 Lz       = 24.816372 Density  = 1.002180 
Volume   = 15283.220443 
---------------- Step  1600000 ----- CPU =    375.6526 (sec) ----------------
Time     = 8000000.000000 Temp     = 251.673788 Press    = -494.608472 
PotEng   = -10.519730 KinEng   = 0.748727 Lx       = 24.884732 
Ly       = 24.884732 Lz       = 24.884732 Density  = 0.993943 
Volume   = 15409.868360 
---------------- Step  1610000 ----- CPU =    381.9163 (sec) ----------------
Time     = 8050000.000000 Temp     = 230.204055 Press    = 404.627057 
PotEng   = -10.467884 KinEng   = 0.684854 Lx       = 24.809062 
Ly       = 24.809062 Lz       = 24.809062 Density  = 1.003066 
Volume   = 15269.719064 
---------------- Step  1620000 ----- CPU =    388.1453 (sec) ----------------
Time     = 8100000.000000 Temp     = 237.041274 Press    = 1.931981 
PotEng   = -10.378959 KinEng   = 0.705195 Lx       = 24.825098 
Ly       = 24.825098 Lz       = 24.825098 Density  = 1.001123 
Volume   = 15299.348089 
---------------- Step  1630000 ----- CPU =    394.4516 (sec) ----------------
Time     = 8150000.000000 Temp     = 234.839520 Press    = -207.435488 
PotEng   = -10.382205 KinEng   = 0.698645 Lx       = 24.766316 
Ly       = 24.766316 Lz       = 24.766316 Density  = 1.008269 
Volume   = 15190.924854 
---------------- Step  1640000 ----- CPU =    400.7293 (sec) ----------------
Time     = 8200000.000000 Temp     = 231.874974 Press    = 180.167854 
PotEng   = -10.436785 KinEng   = 0.689825 Lx       = 24.729842 
Ly       = 24.729842 Lz       = 24.729842 Density  = 1.012737 
Volume   = 15123.907564 
---------------- Step  1650000 ----- CPU =    407.0051 (sec) ----------------
Time     = 8250000.000000 Temp     = 241.314256 Press    = 221.339900 
PotEng   = -10.410353 KinEng   = 0.717907 Lx       = 24.864010 
Ly       = 24.864010 Lz       = 24.864010 Density  = 0.996431 
Volume   = 15371.402842 
---------------- Step  1660000 ----- CPU =    413.3165 (sec) ----------------
Time     = 8300000.000000 Temp     = 229.919723 Press    = 935.349950 
PotEng   = -10.463529 KinEng   = 0.684008 Lx       = 24.836080 
Ly       = 24.836080 Lz       = 24.836080 Density  = 0.999796 
Volume   = 15319.660650 
---------------- Step  1670000 ----- CPU =    419.6222 (sec) ----------------
Time     = 8350000.000000 Temp     = 234.998395 Press    = -602.491655 
PotEng   = -10.456204 KinEng   = 0.699117 Lx       = 24.953139 
Ly       = 24.953139 Lz       = 24.953139 Density  = 0.985791 
Volume   = 15537.301105 
---------------- Step  1680000 ----- CPU =    425.9045 (sec) ----------------
Time     = 8400000.000000 Temp     = 244.912711 Press    = -70.870369 
PotEng   = -10.486312 KinEng   = 0.728612 Lx       = 24.834039 
Ly       = 24.834039 Lz       = 24.834039 Density  = 1.000042 
Volume   = 15315.884680 
---------------- Step  1690000 ----- CPU =    432.1525 (sec) ----------------
Time     = 8450000.000000 Temp     = 232.603506 Press    = 204.116283 
PotEng   = -10.437566 KinEng   = 0.691993 Lx       = 24.754046 
Ly       = 24.754046 Lz       = 24.754046 Density  = 1.009769 
Volume   = 15168.357838 
---------------- Step  1700000 ----- CPU =    438.3930 (sec) ----------------
Time     = 8500000.000000 Temp     = 247.207472 Press    = 125.238218 
PotEng   = -10.446867 KinEng   = 0.735439 Lx       = 24.779011 
Ly       = 24.779011 Lz       = 24.779011 Density  = 1.006720 
Volume   = 15214.297352 
---------------- Step  1710000 ----- CPU =    444.6281 (sec) ----------------
Time     = 8550000.000000 Temp     = 237.228217 Press    = -401.032772 
PotEng   = -10.393366 KinEng   = 0.705751 Lx       = 24.802821 
Ly       = 24.802821 Lz       = 24.802821 Density  = 1.003823 
Volume   = 15258.196824 
---------------- Step  1720000 ----- CPU =    450.8553 (sec) ----------------
Time     = 8600000.000000 Temp     = 243.852033 Press    = 373.799915 
PotEng   = -10.352648 KinEng   = 0.725457 Lx       = 24.719257 
Ly       = 24.719257 Lz       = 24.719257 Density  = 1.014038 
Volume   = 15104.496881 
---------------- Step  1730000 ----- CPU =    457.1650 (sec) ----------------
Time     = 8650000.000000 Temp     = 235.526309 Press    = -455.522909 
PotEng   = -10.402969 KinEng   = 0.700688 Lx       = 24.886889 
Ly       = 24.886889 Lz       = 24.886889 Density  = 0.993685 
Volume   = 15413.875186 
---------------- Step  1740000 ----- CPU =    463.4492 (sec) ----------------
Time     = 8700000.000000 Temp     = 245.364545 Press    = -473.461766 
PotEng   = -10.355097 KinEng   = 0.729957 Lx       = 24.843513 
Ly       = 24.843513 Lz       = 24.843513 Density  = 0.998899 
Volume   = 15333.418833 
---------------- Step  1750000 ----- CPU =    469.6938 (sec) ----------------
Time     = 8750000.000000 Temp     = 246.378949 Press    = -149.407309 
PotEng   = -10.457014 KinEng   = 0.732974 Lx       = 24.786167 
Ly       = 24.786167 Lz       = 24.786167 Density  = 1.005848 
Volume   = 15227.482868 
---------------- Step  1760000 ----- CPU =    475.9820 (sec) ----------------
Time     = 8800000.000000 Temp     = 245.482663 Press    = -162.325255 
PotEng   = -10.391600 KinEng   = 0.730308 Lx       = 24.734362 
Ly       = 24.734362 Lz       = 24.734362 Density  = 1.012181 
Volume   = 15132.202027 
---------------- Step  1770000 ----- CPU =    482.2440 (sec) ----------------
Time     = 8850000.000000 Temp     = 239.255499 Press    = 120.337288 
PotEng   = -10.428689 KinEng   = 0.711782 Lx       = 24.714633 
Ly       = 24.714633 Lz       = 24.714633 Density  = 1.014607 
Volume   = 15096.020543 
---------------- Step  1780000 ----- CPU =    488.5487 (sec) ----------------
Time     = 8900000.000000 Temp     = 241.315313 Press    = -664.277006 
PotEng   = -10.404232 KinEng   = 0.717910 Lx       = 24.729177 
Ly       = 24.729177 Lz       = 24.729177 Density  = 1.012818 
Volume   = 15122.687472 
---------------- Step  1790000 ----- CPU =    494.7749 (sec) ----------------
Time     = 8950000.000000 Temp     = 256.049197 Press    = -326.650691 
PotEng   = -10.392607 KinEng   = 0.761743 Lx       = 24.746748 
Ly       = 24.746748 Lz       = 24.746748 Density  = 1.010662 
Volume   = 15154.946677 
---------------- Step  1800000 ----- CPU =    501.0873 (sec) ----------------
Time     = 9000000.000000 Temp     = 229.971027 Press    = -488.291296 
PotEng   = -10.421241 KinEng   = 0.684161 Lx       = 24.840100 
Ly       = 24.840100 Lz       = 24.840100 Density  = 0.999311 
Volume   = 15327.101924 
---------------- Step  1810000 ----- CPU =    507.3981 (sec) ----------------
Time     = 9050000.000000 Temp     = 244.739860 Press    = -550.119001 
PotEng   = -10.441563 KinEng   = 0.728098 Lx       = 24.879616 
Ly       = 24.879616 Lz       = 24.879616 Density  = 0.994557 
Volume   = 15400.365326 
---------------- Step  1820000 ----- CPU =    513.7004 (sec) ----------------
Time     = 9100000.000000 Temp     = 219.289991 Press    = 282.317456 
PotEng   = -10.379179 KinEng   = 0.652385 Lx       = 24.736602 
Ly       = 24.736602 Lz       = 24.736602 Density  = 1.011906 
Volume   = 15136.314311 
---------------- Step  1830000 ----- CPU =    519.9687 (sec) ----------------
Time     = 9150000.000000 Temp     = 248.800239 Press    = 68.957678 
PotEng   = -10.398112 KinEng   = 0.740178 Lx       = 24.766701 
Ly       = 24.766701 Lz       = 24.766701 Density  = 1.008222 
Volume   = 15191.634560 
---------------- Step  1840000 ----- CPU =    526.2170 (sec) ----------------
Time     = 9200000.000000 Temp     = 244.343723 Press    = 159.123739 
PotEng   = -10.412652 KinEng   = 0.726920 Lx       = 24.700513 
Ly       = 24.700513 Lz       = 24.700513 Density  = 1.016348 
Volume   = 15070.162242 
---------------- Step  1850000 ----- CPU =    532.5171 (sec) ----------------
Time     = 9250000.000000 Temp     = 243.437877 Press    = -468.740258 
PotEng   = -10.396616 KinEng   = 0.724225 Lx       = 24.831934 
Ly       = 24.831934 Lz       = 24.831934 Density  = 1.000297 
Volume   = 15311.989211 
---------------- Step  1860000 ----- CPU =    538.7751 (sec) ----------------
Time     = 9300000.000000 Temp     = 245.398651 Press    = 221.949114 
PotEng   = -10.424911 KinEng   = 0.730058 Lx       = 24.815270 
Ly       = 24.815270 Lz       = 24.815270 Density  = 1.002313 
Volume   = 15281.183854 
---------------- Step  1870000 ----- CPU =    545.0445 (sec) ----------------
Time     = 9350000.000000 Temp     = 229.146407 Press    = -100.559427 
PotEng   = -10.325133 KinEng   = 0.681708 Lx       = 24.781164 
Ly       = 24.781164 Lz       = 24.781164 Density  = 1.006457 
Volume   = 15218.264193 
---------------- Step  1880000 ----- CPU =    551.2939 (sec) ----------------
Time     = 9400000.000000 Temp     = 236.474700 Press    = -1618.311688 
PotEng   = -10.367275 KinEng   = 0.703509 Lx       = 24.911980 
Ly       = 24.911980 Lz       = 24.911980 Density  = 0.990685 
Volume   = 15460.543113 
---------------- Step  1890000 ----- CPU =    557.5687 (sec) ----------------
Time     = 9450000.000000 Temp     = 235.855741 Press    = -645.428348 
PotEng   = -10.344957 KinEng   = 0.701668 Lx       = 24.789663 
Ly       = 24.789663 Lz       = 24.789663 Density  = 1.005423 
Volume   = 15233.927107 
---------------- Step  1900000 ----- CPU =    563.8182 (sec) ----------------
Time     = 9500000.000000 Temp     = 244.983833 Press    = 167.449061 
PotEng   = -10.437861 KinEng   = 0.728824 Lx       = 24.717938 
Ly       = 24.717938 Lz       = 24.717938 Density  = 1.014200 
Volume   = 15102.078550 
---------------- Step  1910000 ----- CPU =    570.1141 (sec) ----------------
Time     = 9550000.000000 Temp     = 234.228841 Press    = 440.170105 
PotEng   = -10.452329 KinEng   = 0.696828 Lx       = 24.805968 
Ly       = 24.805968 Lz       = 24.805968 Density  = 1.003441 
Volume   = 15264.006176 
---------------- Step  1920000 ----- CPU =    576.4721 (sec) ----------------
Time     = 9600000.000000 Temp     = 227.470530 Press    = -756.727053 
PotEng   = -10.447781 KinEng   = 0.676722 Lx       = 24.830553 
Ly       = 24.830553 Lz       = 24.830553 Density  = 1.000464 
Volume   = 15309.435027 
---------------- Step  1930000 ----- CPU =    582.7239 (sec) ----------------
Time     = 9650000.000000 Temp     = 226.496243 Press    = -496.796687 
PotEng   = -10.431041 KinEng   = 0.673824 Lx       = 24.831184 
Ly       = 24.831184 Lz       = 24.831184 Density  = 1.000387 
Volume   = 15310.601913 
---------------- Step  1940000 ----- CPU =    588.9423 (sec) ----------------
Time     = 9700000.000000 Temp     = 220.329257 Press    = -1188.041063 
PotEng   = -10.358381 KinEng   = 0.655477 Lx       = 24.952720 
Ly       = 24.952720 Lz       = 24.952720 Density  = 0.985841 
Volume   = 15536.516846 
---------------- Step  1950000 ----- CPU =    595.1880 (sec) ----------------
Time     = 9750000.000000 Temp     = 251.042801 Press    = 405.574668 
PotEng   = -10.413428 KinEng   = 0.746849 Lx       = 24.812468 
Ly       = 24.812468 Lz       = 24.812468 Density  = 1.002653 
Volume   = 15276.008976 
---------------- Step  1960000 ----- CPU =    601.3499 (sec) ----------------
Time     = 9800000.000000 Temp     = 250.974046 Press    = 77.313969 
PotEng   = -10.422080 KinEng   = 0.746645 Lx       = 24.841598 
Ly       = 24.841598 Lz       = 24.841598 Density  = 0.999130 
Volume   = 15329.874323 
---------------- Step  1970000 ----- CPU =    607.5130 (sec) ----------------
Time     = 9850000.000000 Temp     = 230.735330 Press    = 188.953644 
PotEng   = -10.348361 KinEng   = 0.686435 Lx       = 24.838050 
Ly       = 24.838050 Lz       = 24.838050 Density  = 0.999558 
Volume   = 15323.306559 
---------------- Step  1980000 ----- CPU =    613.8082 (sec) ----------------
Time     = 9900000.000000 Temp     = 243.571920 Press    = 267.756757 
PotEng   = -10.485622 KinEng   = 0.724624 Lx       = 24.751982 
Ly       = 24.751982 Lz       = 24.751982 Density  = 1.010021 
Volume   = 15164.563613 
---------------- Step  1990000 ----- CPU =    620.0862 (sec) ----------------
Time     = 9950000.000000 Temp     = 242.627016 Press    = -312.673198 
PotEng   = -10.443111 KinEng   = 0.721812 Lx       = 24.839818 
Ly       = 24.839818 Lz       = 24.839818 Density  = 0.999345 
Volume   = 15326.579860 
---------------- Step  2000000 ----- CPU =    626.3020 (sec) ----------------
Time     = 10000000.000000 Temp     = 244.651063 Press    = -865.007201 
PotEng   = -10.441985 KinEng   = 0.727834 Lx       = 24.876325 
Ly       = 24.876325 Lz       = 24.876325 Density  = 0.994951 
Volume   = 15394.254409 
---------------- Step  2010000 ----- CPU =    632.5363 (sec) ----------------
Time     = 10050000.000000 Temp     = 246.269783 Press    = 87.881480 
PotEng   = -10.442619 KinEng   = 0.732650 Lx       = 24.718472 
Ly       = 24.718472 Lz       = 24.718472 Density  = 1.014135 
Volume   = 15103.057625 
---------------- Step  2020000 ----- CPU =    638.7976 (sec) ----------------
Time     = 10100000.000000 Temp     = 240.576777 Press    = 496.990226 
PotEng   = -10.444642 KinEng   = 0.715713 Lx       = 24.737276 
Ly       = 24.737276 Lz       = 24.737276 Density  = 1.011824 
Volume   = 15137.551542 
---------------- Step  2030000 ----- CPU =    645.0282 (sec) ----------------
Time     = 10150000.000000 Temp     = 225.900373 Press    = -587.006166 
PotEng   = -10.418380 KinEng   = 0.672051 Lx       = 24.842300 
Ly       = 24.842300 Lz       = 24.842300 Density  = 0.999045 
Volume   = 15331.173258 
---------------- Step  2040000 ----- CPU =    651.2567 (sec) ----------------
Time     = 10200000.000000 Temp     = 238.605295 Press    = 271.297084 
PotEng   = -10.390656 KinEng   = 0.709848 Lx       = 24.861529 
Ly       = 24.861529 Lz       = 24.861529 Density  = 0.996729 
Volume   = 15366.801765 
---------------- Step  2050000 ----- CPU =    657.4769 (sec) ----------------
Time     = 10250000.000000 Temp     = 227.783734 Press    = -715.282434 
PotEng   = -10.389745 KinEng   = 0.677654 Lx       = 24.947311 
Ly       = 24.947311 Lz       = 24.947311 Density  = 0.986482 
Volume   = 15526.415943 
---------------- Step  2060000 ----- CPU =    663.7170 (sec) ----------------
Time     = 10300000.000000 Temp     = 235.692609 Press    = 78.855587 
PotEng   = -10.422978 KinEng   = 0.701183 Lx       = 24.779643 
Ly       = 24.779643 Lz       = 24.779643 Density  = 1.006643 
Volume   = 15215.462103 
---------------- Step  2070000 ----- CPU =    669.9731 (sec) ----------------
Time     = 10350000.000000 Temp     = 241.339508 Press    = -936.339029 
PotEng   = -10.445781 KinEng   = 0.717982 Lx       = 24.880961 
Ly       = 24.880961 Lz       = 24.880961 Density  = 0.994395 
Volume   = 15402.862701 
---------------- Step  2080000 ----- CPU =    676.1972 (sec) ----------------
Time     = 10400000.000000 Temp     = 252.511230 Press    = -26.634178 
PotEng   = -10.491048 KinEng   = 0.751218 Lx       = 24.773911 
Ly       = 24.773911 Lz       = 24.773911 Density  = 1.007342 
Volume   = 15204.905250 
---------------- Step  2090000 ----- CPU =    682.4261 (sec) ----------------
Time     = 10450000.000000 Temp     = 227.416280 Press    = -74.589219 
PotEng   = -10.448801 KinEng   = 0.676561 Lx       = 24.800789 
Ly       = 24.800789 Lz       = 24.800789 Density  = 1.004070 
Volume   = 15254.447720 
---------------- Step  2100000 ----- CPU =    688.6683 (sec) ----------------
Time     = 10500000.000000 Temp     = 228.478428 Press    = -41.428124 
PotEng   = -10.438930 KinEng   = 0.679721 Lx       = 24.766252 
Ly       = 24.766252 Lz       = 24.766252 Density  = 1.008277 
Volume   = 15190.807070 
---------------- Step  2110000 ----- CPU =    694.9186 (sec) ----------------
Time     = 10550000.000000 Temp     = 230.810738 Press    = -446.389909 
PotEng   = -10.430304 KinEng   = 0.686659 Lx       = 24.868526 
Ly       = 24.868526 Lz       = 24.868526 Density  = 0.995888 
Volume   = 15379.781185 
---------------- Step  2120000 ----- CPU =    701.2358 (sec) ----------------
Time     = 10600000.000000 Temp     = 239.511557 Press    = 695.716094 
PotEng   = -10.380254 KinEng   = 0.712544 Lx       = 24.745337 
Ly       = 24.745337 Lz       = 24.745337 Density  = 1.010835 
Volume   = 15152.354678 
---------------- Step  2130000 ----- CPU =    707.5346 (sec) ----------------
Time     = 10650000.000000 Temp     = 246.955210 Press    = -272.944117 
PotEng   = -10.393834 KinEng   = 0.734689 Lx       = 24.785733 
Ly       = 24.785733 Lz       = 24.785733 Density  = 1.005901 
Volume   = 15226.682400 
---------------- Step  2140000 ----- CPU =    713.7561 (sec) ----------------
Time     = 10700000.000000 Temp     = 248.286633 Press    = -715.026050 
PotEng   = -10.439288 KinEng   = 0.738650 Lx       = 24.854084 
Ly       = 24.854084 Lz       = 24.854084 Density  = 0.997625 
Volume   = 15353.000779 
---------------- Step  2150000 ----- CPU =    719.9999 (sec) ----------------
Time     = 10750000.000000 Temp     = 227.444152 Press    = 2116.297629 
PotEng   = -10.395425 KinEng   = 0.676644 Lx       = 24.673644 
Ly       = 24.673644 Lz       = 24.673644 Density  = 1.019672 
Volume   = 15021.036277 
---------------- Step  2160000 ----- CPU =    726.3031 (sec) ----------------
Time     = 10800000.000000 Temp     = 232.148517 Press    = -291.966812 
PotEng   = -10.427317 KinEng   = 0.690639 Lx       = 24.815564 
Ly       = 24.815564 Lz       = 24.815564 Density  = 1.002278 
Volume   = 15281.728327 
---------------- Step  2170000 ----- CPU =    732.5545 (sec) ----------------
Time     = 10850000.000000 Temp     = 230.045372 Press    = -412.847560 
PotEng   = -10.453460 KinEng   = 0.684382 Lx       = 24.850619 
Ly       = 24.850619 Lz       = 24.850619 Density  = 0.998042 
Volume   = 15346.580060 
---------------- Step  2180000 ----- CPU =    738.8691 (sec) ----------------
Time     = 10900000.000000 Temp     = 241.525012 Press    = -568.548054 
PotEng   = -10.439808 KinEng   = 0.718534 Lx       = 24.947318 
Ly       = 24.947318 Lz       = 24.947318 Density  = 0.986481 
Volume   = 15526.430107 
---------------- Step  2190000 ----- CPU =    745.1034 (sec) ----------------
Time     = 10950000.000000 Temp     = 248.239187 Press    = -185.498449 
PotEng   = -10.451584 KinEng   = 0.738509 Lx       = 24.863482 
Ly       = 24.863482 Lz       = 24.863482 Density  = 0.996494 
Volume   = 15370.424911 
---------------- Step  2200000 ----- CPU =    751.4169 (sec) ----------------
Time     = 11000000.000000 Temp     = 242.500577 Press    = -90.053442 
PotEng   = -10.373332 KinEng   = 0.721436 Lx       = 24.779976 
Ly       = 24.779976 Lz       = 24.779976 Density  = 1.006602 
Volume   = 15216.074277 
---------------- Step  2210000 ----- CPU =    757.5801 (sec) ----------------
Time     = 11050000.000000 Temp     = 239.375496 Press    = -1328.930747 
PotEng   = -10.423456 KinEng   = 0.712139 Lx       = 24.896013 
Ly       = 24.896013 Lz       = 24.896013 Density  = 0.992593 
Volume   = 15430.834600 
---------------- Step  2220000 ----- CPU =    763.8317 (sec) ----------------
Time     = 11100000.000000 Temp     = 236.690075 Press    = -230.220667 
PotEng   = -10.416802 KinEng   = 0.704150 Lx       = 24.777812 
Ly       = 24.777812 Lz       = 24.777812 Density  = 1.006866 
Volume   = 15212.088990 
---------------- Step  2230000 ----- CPU =    770.1246 (sec) ----------------
Time     = 11150000.000000 Temp     = 241.563794 Press    = 346.913574 
PotEng   = -10.417195 KinEng   = 0.718649 Lx       = 24.793837 
Ly       = 24.793837 Lz       = 24.793837 Density  = 1.004915 
Volume   = 15241.623917 
---------------- Step  2240000 ----- CPU =    776.4592 (sec) ----------------
Time     = 11200000.000000 Temp     = 237.702229 Press    = 1175.625314 
PotEng   = -10.406508 KinEng   = 0.707161 Lx       = 24.734785 
Ly       = 24.734785 Lz       = 24.734785 Density  = 1.012130 
Volume   = 15132.977954 
---------------- Step  2250000 ----- CPU =    782.6823 (sec) ----------------
Time     = 11250000.000000 Temp     = 239.790046 Press    = -408.256703 
PotEng   = -10.449307 KinEng   = 0.713373 Lx       = 24.809166 
Ly       = 24.809166 Lz       = 24.809166 Density  = 1.003053 
Volume   = 15269.909809 
---------------- Step  2260000 ----- CPU =    788.9556 (sec) ----------------
Time     = 11300000.000000 Temp     = 238.691176 Press    = 887.475277 
PotEng   = -10.476894 KinEng   = 0.710103 Lx       = 24.709325 
Ly       = 24.709325 Lz       = 24.709325 Density  = 1.015261 
Volume   = 15086.296167 
---------------- Step  2270000 ----- CPU =    795.2353 (sec) ----------------
Time     = 11350000.000000 Temp     = 229.188282 Press    = -345.688300 
PotEng   = -10.407968 KinEng   = 0.681832 Lx       = 24.772172 
Ly       = 24.772172 Lz       = 24.772172 Density  = 1.007554 
Volume   = 15201.703481 
---------------- Step  2280000 ----- CPU =    801.4417 (sec) ----------------
Time     = 11400000.000000 Temp     = 232.585936 Press    = 636.510318 
PotEng   = -10.449749 KinEng   = 0.691940 Lx       = 24.753320 
Ly       = 24.753320 Lz       = 24.753320 Density  = 1.009858 
Volume   = 15167.023627 
---------------- Step  2290000 ----- CPU =    807.7082 (sec) ----------------
Time     = 11450000.000000 Temp     = 237.774711 Press    = -0.877507 
PotEng   = -10.430295 KinEng   = 0.707377 Lx       = 24.771793 
Ly       = 24.771793 Lz       = 24.771793 Density  = 1.007600 
Volume   = 15201.006429 
---------------- Step  2300000 ----- CPU =    813.9834 (sec) ----------------
Time     = 11500000.000000 Temp     = 228.670860 Press    = -878.002151 
PotEng   = -10.405274 KinEng   = 0.680293 Lx       = 24.812562 
Ly       = 24.812562 Lz       = 24.812562 Density  = 1.002642 
Volume   = 15276.182078 
---------------- Step  2310000 ----- CPU =    820.1974 (sec) ----------------
Time     = 11550000.000000 Temp     = 232.343557 Press    = 1429.326738 
PotEng   = -10.510750 KinEng   = 0.691219 Lx       = 24.715408 
Ly       = 24.715408 Lz       = 24.715408 Density  = 1.014512 
Volume   = 15097.441531 
---------------- Step  2320000 ----- CPU =    826.4557 (sec) ----------------
Time     = 11600000.000000 Temp     = 232.095777 Press    = -664.142478 
PotEng   = -10.386695 KinEng   = 0.690482 Lx       = 24.881469 
Ly       = 24.881469 Lz       = 24.881469 Density  = 0.994334 
Volume   = 15403.806298 
---------------- Step  2330000 ----- CPU =    832.7171 (sec) ----------------
Time     = 11650000.000000 Temp     = 243.492004 Press    = -524.083283 
PotEng   = -10.321809 KinEng   = 0.724386 Lx       = 24.807230 
Ly       = 24.807230 Lz       = 24.807230 Density  = 1.003288 
Volume   = 15266.335625 
---------------- Step  2340000 ----- CPU =    838.9476 (sec) ----------------
Time     = 11700000.000000 Temp     = 244.682100 Press    = 364.035619 
PotEng   = -10.471580 KinEng   = 0.727926 Lx       = 24.803521 
Ly       = 24.803521 Lz       = 24.803521 Density  = 1.003738 
Volume   = 15259.489927 
---------------- Step  2350000 ----- CPU =    845.2455 (sec) ----------------
Time     = 11750000.000000 Temp     = 240.522315 Press    = 134.526039 
PotEng   = -10.425860 KinEng   = 0.715551 Lx       = 24.799460 
Ly       = 24.799460 Lz       = 24.799460 Density  = 1.004231 
Volume   = 15251.996274 
---------------- Step  2360000 ----- CPU =    851.4518 (sec) ----------------
Time     = 11800000.000000 Temp     = 244.081979 Press    = -633.250724 
PotEng   = -10.392168 KinEng   = 0.726141 Lx       = 24.811793 
Ly       = 24.811793 Lz       = 24.811793 Density  = 1.002735 
Volume   = 15274.761085 
---------------- Step  2370000 ----- CPU =    857.6909 (sec) ----------------
Time     = 11850000.000000 Temp     = 242.639251 Press    = -1387.134811 
PotEng   = -10.409962 KinEng   = 0.721849 Lx       = 24.974101 
Ly       = 24.974101 Lz       = 24.974101 Density  = 0.983311 
Volume   = 15576.489304 
---------------- Step  2380000 ----- CPU =    864.0103 (sec) ----------------
Time     = 11900000.000000 Temp     = 246.167525 Press    = -84.171606 
PotEng   = -10.377620 KinEng   = 0.732345 Lx       = 24.806907 
Ly       = 24.806907 Lz       = 24.806907 Density  = 1.003327 
Volume   = 15265.740617 
---------------- Step  2390000 ----- CPU =    870.3264 (sec) ----------------
Time     = 11950000.000000 Temp     = 236.986273 Press    = 583.426634 
PotEng   = -10.423435 KinEng   = 0.705031 Lx       = 24.794317 
Ly       = 24.794317 Lz       = 24.794317 Density  = 1.004857 
Volume   = 15242.508748 
---------------- Step  2400000 ----- CPU =    876.5319 (sec) ----------------
Time     = 12000000.000000 Temp     = 237.221419 Press    = -562.520430 
PotEng   = -10.442566 KinEng   = 0.705731 Lx       = 24.754681 
Ly       = 24.754681 Lz       = 24.754681 Density  = 1.009691 
Volume   = 15169.525410 
---------------- Step  2410000 ----- CPU =    882.7719 (sec) ----------------
Time     = 12050000.000000 Temp     = 235.443093 Press    = -477.630343 
PotEng   = -10.339531 KinEng   = 0.700440 Lx       = 24.966231 
Ly       = 24.966231 Lz       = 24.966231 Density  = 0.984241 
Volume   = 15561.767987 
---------------- Step  2420000 ----- CPU =    889.0220 (sec) ----------------
Time     = 12100000.000000 Temp     = 232.557957 Press    = 166.820025 
PotEng   = -10.413381 KinEng   = 0.691857 Lx       = 24.654544 
Ly       = 24.654544 Lz       = 24.654544 Density  = 1.022044 
Volume   = 14986.178845 
---------------- Step  2430000 ----- CPU =    895.3158 (sec) ----------------
Time     = 12150000.000000 Temp     = 235.628582 Press    = -396.645249 
PotEng   = -10.404233 KinEng   = 0.700992 Lx       = 24.712705 
Ly       = 24.712705 Lz       = 24.712705 Density  = 1.014845 
Volume   = 15092.487734 
---------------- Step  2440000 ----- CPU =    901.5821 (sec) ----------------
Time     = 12200000.000000 Temp     = 252.020411 Press    = 385.572893 
PotEng   = -10.399372 KinEng   = 0.749758 Lx       = 24.717043 
Ly       = 24.717043 Lz       = 24.717043 Density  = 1.014311 
Volume   = 15100.437647 
---------------- Step  2450000 ----- CPU =    907.9003 (sec) ----------------
Time     = 12250000.000000 Temp     = 255.844410 Press    = -879.176409 
PotEng   = -10.444627 KinEng   = 0.761134 Lx       = 24.857879 
Ly       = 24.857879 Lz       = 24.857879 Density  = 0.997168 
Volume   = 15360.035601 
---------------- Step  2460000 ----- CPU =    914.1579 (sec) ----------------
Time     = 12300000.000000 Temp     = 245.431632 Press    = 604.544656 
PotEng   = -10.387302 KinEng   = 0.730156 Lx       = 24.653877 
Ly       = 24.653877 Lz       = 24.653877 Density  = 1.022127 
Volume   = 14984.963205 
---------------- Step  2470000 ----- CPU =    920.3645 (sec) ----------------
Time     = 12350000.000000 Temp     = 223.677823 Press    = 694.879739 
PotEng   = -10.410735 KinEng   = 0.665439 Lx       = 24.740360 
Ly       = 24.740360 Lz       = 24.740360 Density  = 1.011445 
Volume   = 15143.213470 
---------------- Step  2480000 ----- CPU =    926.6591 (sec) ----------------
Time     = 12400000.000000 Temp     = 239.410131 Press    = -1004.746346 
PotEng   = -10.404534 KinEng   = 0.712242 Lx       = 24.920720 
Ly       = 24.920720 Lz       = 24.920720 Density  = 0.989644 
Volume   = 15476.820211 
---------------- Step  2490000 ----- CPU =    932.9141 (sec) ----------------
Time     = 12450000.000000 Temp     = 230.230724 Press    = 178.960003 
PotEng   = -10.371031 KinEng   = 0.684934 Lx       = 24.763100 
Ly       = 24.763100 Lz       = 24.763100 Density  = 1.008662 
Volume   = 15185.008915 
---------------- Step  2500000 ----- CPU =    939.2403 (sec) ----------------
Time     = 12500000.000000 Temp     = 227.530815 Press    = 127.152155 
PotEng   = -10.377758 KinEng   = 0.676901 Lx       = 24.802684 
Ly       = 24.802684 Lz       = 24.802684 Density  = 1.003840 
Volume   = 15257.944583 
---------------- Step  2510000 ----- CPU =    945.5305 (sec) ----------------
Time     = 12550000.000000 Temp     = 238.878110 Press    = -912.081307 
PotEng   = -10.462600 KinEng   = 0.710660 Lx       = 24.800726 
Ly       = 24.800726 Lz       = 24.800726 Density  = 1.004078 
Volume   = 15254.332249 
---------------- Step  2520000 ----- CPU =    951.8381 (sec) ----------------
[...]
Ly       = 24.794597 Lz       = 24.794597 Density  = 1.004823 
Volume   = 15243.024921 
---------------- Step  4390000 ----- CPU =   2038.2271 (sec) ----------------
Time     = 21950000.000000 Temp     = 244.523876 Press    = -484.143532 
PotEng   = -10.466104 KinEng   = 0.727456 Lx       = 24.894760 
Ly       = 24.894760 Lz       = 24.894760 Density  = 0.992743 
Volume   = 15428.503835 
---------------- Step  4400000 ----- CPU =   2043.8143 (sec) ----------------
Time     = 22000000.000000 Temp     = 243.563912 Press    = 251.932811 
PotEng   = -10.418135 KinEng   = 0.724600 Lx       = 24.781177 
Ly       = 24.781177 Lz       = 24.781177 Density  = 1.006456 
Volume   = 15218.287984 
---------------- Step  4410000 ----- CPU =   2049.4163 (sec) ----------------
Time     = 22050000.000000 Temp     = 247.976341 Press    = 1120.464706 
PotEng   = -10.503079 KinEng   = 0.737727 Lx       = 24.760630 
Ly       = 24.760630 Lz       = 24.760630 Density  = 1.008964 
Volume   = 15180.464140 
---------------- Step  4420000 ----- CPU =   2055.0207 (sec) ----------------
Time     = 22100000.000000 Temp     = 259.542319 Press    = 833.455273 
PotEng   = -10.416139 KinEng   = 0.772135 Lx       = 24.785899 
Ly       = 24.785899 Lz       = 24.785899 Density  = 1.005881 
Volume   = 15226.988719 
---------------- Step  4430000 ----- CPU =   2060.6265 (sec) ----------------
Time     = 22150000.000000 Temp     = 237.333034 Press    = -269.445869 
PotEng   = -10.416721 KinEng   = 0.706063 Lx       = 24.830191 
Ly       = 24.830191 Lz       = 24.830191 Density  = 1.000507 
Volume   = 15308.766595 
---------------- Step  4440000 ----- CPU =   2066.2281 (sec) ----------------
Time     = 22200000.000000 Temp     = 236.348964 Press    = -645.846829 
PotEng   = -10.520646 KinEng   = 0.703135 Lx       = 24.933590 
Ly       = 24.933590 Lz       = 24.933590 Density  = 0.988112 
Volume   = 15500.811853 
---------------- Step  4450000 ----- CPU =   2071.7991 (sec) ----------------
Time     = 22250000.000000 Temp     = 253.777557 Press    = 502.438813 
PotEng   = -10.473732 KinEng   = 0.754985 Lx       = 24.768370 
Ly       = 24.768370 Lz       = 24.768370 Density  = 1.008018 
Volume   = 15194.705027 
---------------- Step  4460000 ----- CPU =   2077.2678 (sec) ----------------
Time     = 22300000.000000 Temp     = 250.604149 Press    = -543.982177 
PotEng   = -10.342344 KinEng   = 0.745544 Lx       = 24.873181 
Ly       = 24.873181 Lz       = 24.873181 Density  = 0.995329 
Volume   = 15388.417942 
---------------- Step  4470000 ----- CPU =   2082.8425 (sec) ----------------
Time     = 22350000.000000 Temp     = 252.805250 Press    = -326.757503 
PotEng   = -10.369750 KinEng   = 0.752093 Lx       = 24.872875 
Ly       = 24.872875 Lz       = 24.872875 Density  = 0.995365 
Volume   = 15387.849706 
---------------- Step  4480000 ----- CPU =   2088.4576 (sec) ----------------
Time     = 22400000.000000 Temp     = 226.692094 Press    = 586.564026 
PotEng   = -10.439502 KinEng   = 0.674406 Lx       = 24.765029 
Ly       = 24.765029 Lz       = 24.765029 Density  = 1.008426 
Volume   = 15188.556452 
---------------- Step  4490000 ----- CPU =   2094.0601 (sec) ----------------
Time     = 22450000.000000 Temp     = 231.173144 Press    = -987.631169 
PotEng   = -10.454686 KinEng   = 0.687737 Lx       = 24.890479 
Ly       = 24.890479 Lz       = 24.890479 Density  = 0.993255 
Volume   = 15420.547008 
---------------- Step  4500000 ----- CPU =   2099.6981 (sec) ----------------
Time     = 22500000.000000 Temp     = 233.993021 Press    = -410.466996 
PotEng   = -10.427882 KinEng   = 0.696126 Lx       = 24.803417 
Ly       = 24.803417 Lz       = 24.803417 Density  = 1.003751 
Volume   = 15259.298445 
---------------- Step  4510000 ----- CPU =   2105.3245 (sec) ----------------
Time     = 22550000.000000 Temp     = 249.648734 Press    = -908.027559 
PotEng   = -10.413900 KinEng   = 0.742702 Lx       = 24.857385 
Ly       = 24.857385 Lz       = 24.857385 Density  = 0.997227 
Volume   = 15359.119574 
---------------- Step  4520000 ----- CPU =   2110.8822 (sec) ----------------
Time     = 22600000.000000 Temp     = 235.385500 Press    = -245.284055 
PotEng   = -10.400367 KinEng   = 0.700269 Lx       = 24.815197 
Ly       = 24.815197 Lz       = 24.815197 Density  = 1.002322 
Volume   = 15281.049359 
---------------- Step  4530000 ----- CPU =   2116.4354 (sec) ----------------
Time     = 22650000.000000 Temp     = 231.116741 Press    = -1012.182838 
PotEng   = -10.416602 KinEng   = 0.687570 Lx       = 24.838506 
Ly       = 24.838506 Lz       = 24.838506 Density  = 0.999503 
Volume   = 15324.149841 
---------------- Step  4540000 ----- CPU =   2122.0093 (sec) ----------------
Time     = 22700000.000000 Temp     = 249.439009 Press    = 625.001523 
PotEng   = -10.472453 KinEng   = 0.742078 Lx       = 24.885847 
Ly       = 24.885847 Lz       = 24.885847 Density  = 0.993810 
Volume   = 15411.939102 
---------------- Step  4550000 ----- CPU =   2127.6847 (sec) ----------------
Time     = 22750000.000000 Temp     = 227.751907 Press    = 470.214567 
PotEng   = -10.488838 KinEng   = 0.677559 Lx       = 24.740356 
Ly       = 24.740356 Lz       = 24.740356 Density  = 1.011446 
Volume   = 15143.205945 
---------------- Step  4560000 ----- CPU =   2133.3178 (sec) ----------------
Time     = 22800000.000000 Temp     = 225.813865 Press    = 494.914492 
PotEng   = -10.378511 KinEng   = 0.671794 Lx       = 24.738416 
Ly       = 24.738416 Lz       = 24.738416 Density  = 1.011684 
Volume   = 15139.643246 
---------------- Step  4570000 ----- CPU =   2138.8406 (sec) ----------------
Time     = 22850000.000000 Temp     = 237.322479 Press    = 281.739756 
PotEng   = -10.395709 KinEng   = 0.706032 Lx       = 24.763066 
Ly       = 24.763066 Lz       = 24.763066 Density  = 1.008666 
Volume   = 15184.946157 
---------------- Step  4580000 ----- CPU =   2144.3661 (sec) ----------------
Time     = 22900000.000000 Temp     = 242.452372 Press    = -185.999865 
PotEng   = -10.431243 KinEng   = 0.721293 Lx       = 24.750030 
Ly       = 24.750030 Lz       = 24.750030 Density  = 1.010260 
Volume   = 15160.976457 
---------------- Step  4590000 ----- CPU =   2149.8887 (sec) ----------------
Time     = 22950000.000000 Temp     = 242.555926 Press    = -8.656035 
PotEng   = -10.439533 KinEng   = 0.721601 Lx       = 24.870426 
Ly       = 24.870426 Lz       = 24.870426 Density  = 0.995659 
Volume   = 15383.305969 
---------------- Step  4600000 ----- CPU =   2155.5073 (sec) ----------------
Time     = 23000000.000000 Temp     = 250.494761 Press    = 196.628433 
PotEng   = -10.421203 KinEng   = 0.745219 Lx       = 24.675710 
Ly       = 24.675710 Lz       = 24.675710 Density  = 1.019416 
Volume   = 15024.809621 
---------------- Step  4610000 ----- CPU =   2161.0817 (sec) ----------------
Time     = 23050000.000000 Temp     = 235.302778 Press    = 712.129125 
PotEng   = -10.442775 KinEng   = 0.700023 Lx       = 24.743288 
Ly       = 24.743288 Lz       = 24.743288 Density  = 1.011086 
Volume   = 15148.591214 
---------------- Step  4620000 ----- CPU =   2166.6757 (sec) ----------------
Time     = 23100000.000000 Temp     = 223.671130 Press    = -189.946048 
PotEng   = -10.469132 KinEng   = 0.665419 Lx       = 24.889847 
Ly       = 24.889847 Lz       = 24.889847 Density  = 0.993331 
Volume   = 15419.372687 
---------------- Step  4630000 ----- CPU =   2172.1590 (sec) ----------------
Time     = 23150000.000000 Temp     = 230.110968 Press    = 987.599740 
PotEng   = -10.435196 KinEng   = 0.684577 Lx       = 24.764544 
Ly       = 24.764544 Lz       = 24.764544 Density  = 1.008485 
Volume   = 15187.664840 
---------------- Step  4640000 ----- CPU =   2178.0979 (sec) ----------------
Time     = 23200000.000000 Temp     = 249.372230 Press    = -92.220908 
PotEng   = -10.433757 KinEng   = 0.741879 Lx       = 24.877888 
Ly       = 24.877888 Lz       = 24.877888 Density  = 0.994764 
Volume   = 15397.156821 
---------------- Step  4650000 ----- CPU =   2184.1656 (sec) ----------------
Time     = 23250000.000000 Temp     = 233.822712 Press    = -676.453533 
PotEng   = -10.437320 KinEng   = 0.695620 Lx       = 24.872168 
Ly       = 24.872168 Lz       = 24.872168 Density  = 0.995450 
Volume   = 15386.539035 
---------------- Step  4660000 ----- CPU =   2190.2840 (sec) ----------------
Time     = 23300000.000000 Temp     = 240.584540 Press    = 663.733653 
PotEng   = -10.431923 KinEng   = 0.715736 Lx       = 24.802695 
Ly       = 24.802695 Lz       = 24.802695 Density  = 1.003839 
Volume   = 15257.966000 
---------------- Step  4670000 ----- CPU =   2196.4106 (sec) ----------------
Time     = 23350000.000000 Temp     = 257.102935 Press    = 51.173633 
PotEng   = -10.414826 KinEng   = 0.764878 Lx       = 24.835319 
Ly       = 24.835319 Lz       = 24.835319 Density  = 0.999888 
Volume   = 15318.253236 
---------------- Step  4680000 ----- CPU =   2202.5241 (sec) ----------------
Time     = 23400000.000000 Temp     = 240.294574 Press    = -222.047266 
PotEng   = -10.378913 KinEng   = 0.714874 Lx       = 24.826229 
Ly       = 24.826229 Lz       = 24.826229 Density  = 1.000987 
Volume   = 15301.438637 
---------------- Step  4690000 ----- CPU =   2208.2547 (sec) ----------------
Time     = 23450000.000000 Temp     = 237.138376 Press    = -371.132897 
PotEng   = -10.421495 KinEng   = 0.705484 Lx       = 24.833661 
Ly       = 24.833661 Lz       = 24.833661 Density  = 1.000088 
Volume   = 15315.184218 
---------------- Step  4700000 ----- CPU =   2213.7614 (sec) ----------------
Time     = 23500000.000000 Temp     = 262.231252 Press    = 402.442365 
PotEng   = -10.436144 KinEng   = 0.780135 Lx       = 24.832912 
Ly       = 24.832912 Lz       = 24.832912 Density  = 1.000179 
Volume   = 15313.798349 
---------------- Step  4710000 ----- CPU =   2219.3531 (sec) ----------------
Time     = 23550000.000000 Temp     = 239.055571 Press    = -595.995246 
PotEng   = -10.471410 KinEng   = 0.711187 Lx       = 24.842045 
Ly       = 24.842045 Lz       = 24.842045 Density  = 0.999076 
Volume   = 15330.701329 
---------------- Step  4720000 ----- CPU =   2224.9460 (sec) ----------------
Time     = 23600000.000000 Temp     = 233.085085 Press    = 366.212452 
PotEng   = -10.408482 KinEng   = 0.693425 Lx       = 24.796211 
Ly       = 24.796211 Lz       = 24.796211 Density  = 1.004626 
Volume   = 15246.001814 
---------------- Step  4730000 ----- CPU =   2230.5928 (sec) ----------------
Time     = 23650000.000000 Temp     = 249.325684 Press    = -45.901682 
PotEng   = -10.436353 KinEng   = 0.741741 Lx       = 24.783867 
Ly       = 24.783867 Lz       = 24.783867 Density  = 1.006128 
Volume   = 15223.243378 
---------------- Step  4740000 ----- CPU =   2236.5232 (sec) ----------------
Time     = 23700000.000000 Temp     = 231.796531 Press    = 344.901447 
PotEng   = -10.341312 KinEng   = 0.689592 Lx       = 24.749190 
Ly       = 24.749190 Lz       = 24.749190 Density  = 1.010363 
Volume   = 15159.432695 
---------------- Step  4750000 ----- CPU =   2242.6076 (sec) ----------------
Time     = 23750000.000000 Temp     = 227.164330 Press    = -164.645181 
PotEng   = -10.400582 KinEng   = 0.675811 Lx       = 24.821240 
Ly       = 24.821240 Lz       = 24.821240 Density  = 1.001590 
Volume   = 15292.216811 
---------------- Step  4760000 ----- CPU =   2248.6414 (sec) ----------------
Time     = 23800000.000000 Temp     = 237.082062 Press    = -229.488301 
PotEng   = -10.370702 KinEng   = 0.705316 Lx       = 24.828416 
Ly       = 24.828416 Lz       = 24.828416 Density  = 1.000722 
Volume   = 15305.482359 
---------------- Step  4770000 ----- CPU =   2254.7673 (sec) ----------------
Time     = 23850000.000000 Temp     = 230.759219 Press    = -27.530717 
PotEng   = -10.305669 KinEng   = 0.686506 Lx       = 24.757141 
Ly       = 24.757141 Lz       = 24.757141 Density  = 1.009390 
Volume   = 15174.048581 
---------------- Step  4780000 ----- CPU =   2260.6004 (sec) ----------------
Time     = 23900000.000000 Temp     = 231.386791 Press    = 72.041951 
PotEng   = -10.423388 KinEng   = 0.688373 Lx       = 24.783024 
Ly       = 24.783024 Lz       = 24.783024 Density  = 1.006231 
Volume   = 15221.689853 
---------------- Step  4790000 ----- CPU =   2266.1280 (sec) ----------------
Time     = 23950000.000000 Temp     = 251.658258 Press    = 702.883719 
PotEng   = -10.494943 KinEng   = 0.748680 Lx       = 24.773829 
Ly       = 24.773829 Lz       = 24.773829 Density  = 1.007352 
Volume   = 15204.753866 
---------------- Step  4800000 ----- CPU =   2271.6814 (sec) ----------------
Time     = 24000000.000000 Temp     = 239.178999 Press    = 237.949041 
PotEng   = -10.415729 KinEng   = 0.711555 Lx       = 24.784064 
Ly       = 24.784064 Lz       = 24.784064 Density  = 1.006104 
Volume   = 15223.607666 
---------------- Step  4810000 ----- CPU =   2277.2339 (sec) ----------------
Time     = 24050000.000000 Temp     = 236.517863 Press    = -400.655860 
PotEng   = -10.385569 KinEng   = 0.703638 Lx       = 24.814946 
Ly       = 24.814946 Lz       = 24.814946 Density  = 1.002353 
Volume   = 15280.585842 
---------------- Step  4820000 ----- CPU =   2282.8497 (sec) ----------------
Time     = 24100000.000000 Temp     = 257.005276 Press    = 158.702194 
PotEng   = -10.375147 KinEng   = 0.764588 Lx       = 24.735522 
Ly       = 24.735522 Lz       = 24.735522 Density  = 1.012039 
Volume   = 15134.331979 
---------------- Step  4830000 ----- CPU =   2288.4221 (sec) ----------------
Time     = 24150000.000000 Temp     = 242.305595 Press    = -10.296078 
PotEng   = -10.428826 KinEng   = 0.720856 Lx       = 24.845556 
Ly       = 24.845556 Lz       = 24.845556 Density  = 0.998652 
Volume   = 15337.201870 
---------------- Step  4840000 ----- CPU =   2293.9614 (sec) ----------------
Time     = 24200000.000000 Temp     = 245.367362 Press    = 1378.815509 
PotEng   = -10.438734 KinEng   = 0.729965 Lx       = 24.694789 
Ly       = 24.694789 Lz       = 24.694789 Density  = 1.017055 
Volume   = 15059.687937 
---------------- Step  4850000 ----- CPU =   2299.5505 (sec) ----------------
Time     = 24250000.000000 Temp     = 246.527004 Press    = 712.430814 
PotEng   = -10.432891 KinEng   = 0.733415 Lx       = 24.765270 
Ly       = 24.765270 Lz       = 24.765270 Density  = 1.008396 
Volume   = 15189.001510 
---------------- Step  4860000 ----- CPU =   2305.0887 (sec) ----------------
Time     = 24300000.000000 Temp     = 228.320906 Press    = 97.001915 
PotEng   = -10.434893 KinEng   = 0.679252 Lx       = 24.801278 
Ly       = 24.801278 Lz       = 24.801278 Density  = 1.004011 
Volume   = 15255.349645 
---------------- Step  4870000 ----- CPU =   2310.6078 (sec) ----------------
Time     = 24350000.000000 Temp     = 231.349998 Press    = -222.049017 
PotEng   = -10.428493 KinEng   = 0.688264 Lx       = 24.845816 
Ly       = 24.845816 Lz       = 24.845816 Density  = 0.998621 
Volume   = 15337.683403 
---------------- Step  4880000 ----- CPU =   2316.1535 (sec) ----------------
Time     = 24400000.000000 Temp     = 248.901529 Press    = -435.489057 
PotEng   = -10.394332 KinEng   = 0.740479 Lx       = 24.796513 
Ly       = 24.796513 Lz       = 24.796513 Density  = 1.004590 
Volume   = 15246.558089 
---------------- Step  4890000 ----- CPU =   2321.8159 (sec) ----------------
Time     = 24450000.000000 Temp     = 224.791204 Press    = -657.139762 
PotEng   = -10.418549 KinEng   = 0.668751 Lx       = 24.836598 
Ly       = 24.836598 Lz       = 24.836598 Density  = 0.999733 
Volume   = 15320.619908 
---------------- Step  4900000 ----- CPU =   2327.3438 (sec) ----------------
Time     = 24500000.000000 Temp     = 225.929492 Press    = -255.992038 
PotEng   = -10.339686 KinEng   = 0.672138 Lx       = 24.880579 
Ly       = 24.880579 Lz       = 24.880579 Density  = 0.994441 
Volume   = 15402.153588 
---------------- Step  4910000 ----- CPU =   2332.8850 (sec) ----------------
Time     = 24550000.000000 Temp     = 244.925484 Press    = -22.981145 
PotEng   = -10.444301 KinEng   = 0.728650 Lx       = 24.775651 
Ly       = 24.775651 Lz       = 24.775651 Density  = 1.007129 
Volume   = 15208.109622 
---------------- Step  4920000 ----- CPU =   2338.4455 (sec) ----------------
Time     = 24600000.000000 Temp     = 236.745163 Press    = -114.462374 
PotEng   = -10.411831 KinEng   = 0.704314 Lx       = 24.793701 
Ly       = 24.793701 Lz       = 24.793701 Density  = 1.004932 
Volume   = 15241.371654 
---------------- Step  4930000 ----- CPU =   2344.0112 (sec) ----------------
Time     = 24650000.000000 Temp     = 246.705940 Press    = -987.769209 
PotEng   = -10.386860 KinEng   = 0.733947 Lx       = 24.812952 
Ly       = 24.812952 Lz       = 24.812952 Density  = 1.002594 
Volume   = 15276.901557 
---------------- Step  4940000 ----- CPU =   2349.6369 (sec) ----------------
Time     = 24700000.000000 Temp     = 248.851429 Press    = 319.810070 
PotEng   = -10.426276 KinEng   = 0.740330 Lx       = 24.840604 
Ly       = 24.840604 Lz       = 24.840604 Density  = 0.999250 
Volume   = 15328.033520 
---------------- Step  4950000 ----- CPU =   2355.2058 (sec) ----------------
Time     = 24750000.000000 Temp     = 239.922058 Press    = -319.142459 
PotEng   = -10.406379 KinEng   = 0.713765 Lx       = 24.817197 
Ly       = 24.817197 Lz       = 24.817197 Density  = 1.002080 
Volume   = 15284.745015 
---------------- Step  4960000 ----- CPU =   2360.8248 (sec) ----------------
Time     = 24800000.000000 Temp     = 250.610759 Press    = -730.328439 
PotEng   = -10.424837 KinEng   = 0.745564 Lx       = 24.855817 
Ly       = 24.855817 Lz       = 24.855817 Density  = 0.997416 
Volume   = 15356.212338 
---------------- Step  4970000 ----- CPU =   2366.3620 (sec) ----------------
Time     = 24850000.000000 Temp     = 242.584692 Press    = -170.351725 
PotEng   = -10.479082 KinEng   = 0.721687 Lx       = 24.832665 
Ly       = 24.832665 Lz       = 24.832665 Density  = 1.000208 
Volume   = 15313.343155 
---------------- Step  4980000 ----- CPU =   2371.9572 (sec) ----------------
Time     = 24900000.000000 Temp     = 246.116947 Press    = 615.233075 
PotEng   = -10.332028 KinEng   = 0.732195 Lx       = 24.770309 
Ly       = 24.770309 Lz       = 24.770309 Density  = 1.007781 
Volume   = 15198.274171 
---------------- Step  4990000 ----- CPU =   2377.5663 (sec) ----------------
Time     = 24950000.000000 Temp     = 256.603766 Press    = -328.640124 
PotEng   = -10.398269 KinEng   = 0.763393 Lx       = 24.735977 
Ly       = 24.735977 Lz       = 24.735977 Density  = 1.011983 
Volume   = 15135.165841 
---------------- Step  5000000 ----- CPU =   2383.1330 (sec) ----------------
Time     = 25000000.000000 Temp     = 235.449947 Press    = 211.860370 
PotEng   = -10.414776 KinEng   = 0.700461 Lx       = 24.779187 
Ly       = 24.779187 Lz       = 24.779187 Density  = 1.006698 
Volume   = 15214.621544 
Loop time of 2383.13 on 6 procs for 4000000 steps with 512 atoms

Performance: 725.096 ns/day, 0.033 hours/ns, 1678.463 timesteps/s
97.0% CPU use with 6 MPI tasks x no OpenMP threads

MPI task timing breakdown:
Section |  min time  |  avg time  |  max time  |%varavg| %total
---------------------------------------------------------------
Pair    | 1995.7     | 2005.4     | 2014.2     |  15.6 | 84.15
Neigh   | 53.848     | 53.983     | 54.1       |   1.3 |  2.27
Comm    | 260.52     | 270.1      | 280.28     |  42.9 | 11.33
Output  | 0.010138   | 0.017102   | 0.051302   |  11.7 |  0.00
Modify  | 43.146     | 44.206     | 44.858     |   8.9 |  1.85
Other   |            | 9.43       |            |       |  0.40

Nlocal:    85.3333 ave 89 max 81 min
Histogram: 1 0 0 2 0 0 1 0 1 1
Nghost:    574 ave 581 max 565 min
Histogram: 1 0 1 0 0 1 1 0 1 1
Neighs:    0 ave 0 max 0 min
Histogram: 6 0 0 0 0 0 0 0 0 0
FullNghs:  2880 ave 2991 max 2706 min
Histogram: 1 0 0 0 1 1 0 1 0 2

Total # of neighbors = 17280
Ave neighs/atom = 33.75
Neighbor list builds = 226639
Dangerous builds = 0

write_data data.final
Total wall time: 0:50:07
