LAMMPS data file via write_data, version 4 Jan 2019, timestep = 200000

512 atoms
1 atom types

-2.4440927153433378e-02 2.4858441927153486e+01 xlo xhi
-2.4440927153433378e-02 2.4858441927153486e+01 ylo yhi
-2.4440927153433378e-02 2.4858441927153486e+01 zlo zhi

Masses

1 18.0153

Atoms # full

148 0 1 0.0000000000000000e+00 1.3437377993259303e+00 1.0948818556479008e+01 1.0306530537552472e+01 2 -1 1
349 0 1 0.0000000000000000e+00 2.2031551915295271e+00 1.3315065346303962e+01 6.3686533792075661e-01 2 -1 1
408 0 1 0.0000000000000000e+00 8.9022660580239599e+00 2.4639729742548603e+01 7.9529905125744795e+00 1 4 1
154 0 1 0.0000000000000000e+00 6.1529112222869875e+00 1.2184744577945549e+01 4.5000374753869803e+00 1 1 0
477 0 1 0.0000000000000000e+00 4.8765058493920699e-01 1.6746016169107726e+01 1.7461373013107391e+00 1 1 3
312 0 1 0.0000000000000000e+00 6.8794096240349321e+00 8.1078193104036025e+00 8.1256986950844290e+00 1 1 1
36 0 1 0.0000000000000000e+00 1.4783400185801003e+00 7.0008811673915643e+00 6.0600365106081124e+00 -1 2 3
344 0 1 0.0000000000000000e+00 4.4999458773787587e-01 1.7109868221956923e+01 8.7931457237612278e+00 2 -1 -2
358 0 1 0.0000000000000000e+00 5.2238039001720136e+00 3.0636285073635094e+00 2.9964181135927546e+00 -1 0 1
130 0 1 0.0000000000000000e+00 4.7718822546835797e+00 7.0674903838474838e+00 3.2434898829899335e+00 -1 -1 4
378 0 1 0.0000000000000000e+00 3.2290896477203055e+00 1.7878966990347642e+01 5.6689636008286328e+00 3 0 1
145 0 1 0.0000000000000000e+00 6.5528820268615484e-01 1.2693016428870406e+01 8.0600717583621933e+00 3 -1 3
476 0 1 0.0000000000000000e+00 1.1013047715805895e+01 3.0212416646373224e+00 1.0513790511898415e+01 0 -2 -2
445 0 1 0.0000000000000000e+00 6.1050078695883974e+00 1.3167042805388383e+00 2.4090327414956703e-01 1 -1 1
461 0 1 0.0000000000000000e+00 5.4591189148219428e+00 1.6804238581259085e+01 4.4184803083883999e+00 -2 0 0
96 0 1 0.0000000000000000e+00 9.3521002385136303e+00 1.5914120288908126e+01 6.6367678009020761e+00 0 -2 -1
219 0 1 0.0000000000000000e+00 4.0143761815272612e+00 9.9627077816449514e+00 1.0738066520209770e+01 1 2 1
79 0 1 0.0000000000000000e+00 1.0338862764251351e+01 1.9363398718757487e+01 3.7517820994211704e+00 1 0 1
284 0 1 0.0000000000000000e+00 5.7164073224651366e+00 2.4391546993168248e+01 8.2439772066237786e+00 -1 1 1
385 0 1 0.0000000000000000e+00 4.4636064906730599e+00 1.3853086815179937e+01 3.7084857640234965e+00 2 0 1
210 0 1 0.0000000000000000e+00 2.2414395418377446e+00 3.8538472089770033e+00 4.8724634856775166e+00 0 2 2
363 0 1 0.0000000000000000e+00 3.4987774140485528e-01 2.0249517024444266e+01 1.2230579636929026e+01 1 -2 -1
270 0 1 0.0000000000000000e+00 7.8278965554099242e+00 1.4030003770683388e+01 9.6589314260499037e+00 0 -4 2
125 0 1 0.0000000000000000e+00 9.0183407774875466e+00 1.3073104522639030e+01 3.9850213404266022e+00 -3 4 -1
14 0 1 0.0000000000000000e+00 7.8697581413175257e+00 8.1259697943283360e+00 5.7496266987143718e-01 0 -2 1
162 0 1 0.0000000000000000e+00 2.4150717071393277e+00 5.6734360070527936e+00 2.3951131043318759e+00 -1 2 -3
318 0 1 0.0000000000000000e+00 1.1521464386147896e+01 8.6066945574821063e-01 9.0846794756119120e+00 0 1 -1
11 0 1 0.0000000000000000e+00 1.1761888725133089e+01 2.2070826956648681e+01 7.4319382240617227e+00 0 0 -1
412 0 1 0.0000000000000000e+00 9.0527390132846310e+00 2.3889515114046397e+01 1.9858748745599852e+00 2 1 0
475 0 1 0.0000000000000000e+00 1.1365534878557808e+01 2.5870076192774474e+00 3.8045743462428314e+00 0 0 3
153 0 1 0.0000000000000000e+00 7.0140221538815135e+00 1.9450339051367436e+01 6.4685800563671405e+00 3 -2 0
244 0 1 0.0000000000000000e+00 7.4245848187580297e+00 2.3543526022990740e+01 1.0697817418353718e+01 -4 -1 1
470 0 1 0.0000000000000000e+00 1.3312975186107727e+00 1.1516377901496600e+01 4.6160640426101365e+00 1 2 -1
51 0 1 0.0000000000000000e+00 2.0582354641590919e+00 2.2884267352460093e+01 1.0475878053432490e+01 1 0 2
340 0 1 0.0000000000000000e+00 4.3614971947085071e+00 5.3659464335014535e+00 5.1571722678056791e+00 1 -1 -1
37 0 1 0.0000000000000000e+00 4.5009792877494208e+00 1.5239110891681323e+01 9.1423397417494403e+00 2 0 3
496 0 1 0.0000000000000000e+00 8.2205884535617209e+00 3.2576438846497697e+00 1.1634490095961217e+01 -1 2 -1
161 0 1 0.0000000000000000e+00 1.0497039757943710e+01 7.9957741488996863e+00 6.3653817492609708e+00 2 0 1
28 0 1 0.0000000000000000e+00 2.4357606196761346e+00 2.3669487435832195e+01 4.3274021984909208e+00 1 0 1
34 0 1 0.0000000000000000e+00 8.9785018851251319e+00 3.7567548456170781e+00 3.9340263023736122e-01 1 1 -2
389 0 1 0.0000000000000000e+00 4.8296803549245269e+00 1.0146544054055447e+01 8.1593893103539248e+00 0 -2 1
190 0 1 0.0000000000000000e+00 5.3952236371823732e+00 1.2619663859527936e+01 7.2392576969441951e+00 1 2 0
157 0 1 0.0000000000000000e+00 1.1562900043529694e+01 2.4588842038730398e+01 4.0393612807371149e+00 1 0 1
446 0 1 0.0000000000000000e+00 1.1143024883516485e+01 1.0436069007282192e+01 1.1991110142922937e+01 -2 -4 1
355 0 1 0.0000000000000000e+00 3.1275097543343411e+00 1.8141813844845892e+01 9.1477162168789121e+00 1 0 -2
234 0 1 0.0000000000000000e+00 1.0465735561634643e+01 1.1309596078615266e+01 7.6042370453822281e+00 1 -1 -1
459 0 1 0.0000000000000000e+00 5.4066286836588997e+00 1.5830592687042466e+00 6.1704141309947831e+00 -1 -1 1
267 0 1 0.0000000000000000e+00 1.1677945558078462e+00 1.0242528627602059e+01 5.5837185528779398e-01 2 0 1
298 0 1 0.0000000000000000e+00 1.0717795954077769e+01 1.7552432580704398e+01 9.1070577595833875e+00 -3 -2 1
9 0 1 0.0000000000000000e+00 6.4910561401790892e+00 1.9268422078312163e+01 1.0376277043962403e+00 0 0 -2
301 0 1 0.0000000000000000e+00 2.0001954705542568e-01 4.1618722700597299e+00 9.5024016816116177e+00 3 1 0
465 0 1 0.0000000000000000e+00 1.0669180594532898e+01 9.3053040612850904e+00 1.7032135101548123e+00 -3 0 0
296 0 1 0.0000000000000000e+00 1.1804893266435114e+01 6.7827430919229457e+00 2.0846289615062004e+00 -2 1 1
186 0 1 0.0000000000000000e+00 6.9305639472758402e+00 2.2099554063417891e+01 2.2300638593850879e+00 1 0 0
70 0 1 0.0000000000000000e+00 1.4371112739253138e+00 8.6821284302096142e+00 2.7668192901709481e+00 -2 0 -2
464 0 1 0.0000000000000000e+00 2.8982958197651403e+00 1.3779286980410212e+01 1.0926949197260582e+01 0 -1 0
371 0 1 0.0000000000000000e+00 1.0506440169186098e+01 1.4860566619529653e+01 1.2379983063760893e+01 0 1 1
275 0 1 0.0000000000000000e+00 2.6519958685121092e+00 1.8320987111190504e+01 2.7160325166210839e+00 3 0 -1
491 0 1 0.0000000000000000e+00 8.4097307917075579e+00 1.3392538978081346e+01 7.0251118105682782e+00 -2 0 2
304 0 1 0.0000000000000000e+00 1.1366277380924698e+01 5.1890867533944967e+00 4.0758551325796262e+00 1 5 -1
370 0 1 0.0000000000000000e+00 8.4994754532062700e-01 1.4492128634722034e+01 3.2396583234127236e+00 0 2 -1
356 0 1 0.0000000000000000e+00 7.4081435071957014e-01 2.1123036659289014e+01 3.6664656041000434e+00 2 3 -1
237 0 1 0.0000000000000000e+00 1.8475725793908164e+00 2.1014129716343408e+00 1.0423027839497735e+01 -3 3 0
463 0 1 0.0000000000000000e+00 3.1840850728311165e-01 8.4456301590062370e+00 8.8221297043102354e+00 0 0 2
456 0 1 0.0000000000000000e+00 9.7263225325055664e+00 2.2531542086739620e+01 1.2152191523394084e+01 -1 0 3
82 0 1 0.0000000000000000e+00 4.6012564570271710e+00 2.2155886218649364e+01 1.0759753769120955e+01 -3 0 0
419 0 1 0.0000000000000000e+00 9.2513008729398791e+00 6.7498435763946318e+00 1.0974925490632920e+01 3 -1 2
291 0 1 0.0000000000000000e+00 8.5143724641701599e+00 2.4419331873286612e+00 3.0690390783686272e+00 3 1 2
485 0 1 0.0000000000000000e+00 3.2010569850403030e+00 1.3404221316419305e+00 4.4939814698148997e+00 4 -2 2
458 0 1 0.0000000000000000e+00 7.0829376620640536e+00 1.4998033316809456e+01 4.5919814613449250e-01 0 0 1
20 0 1 0.0000000000000000e+00 4.1284075854702369e+00 2.3366772250680476e+01 2.2844557097279057e+00 3 0 -2
100 0 1 0.0000000000000000e+00 7.0991080628320598e+00 5.8398192111173666e+00 2.2687541684130994e+00 0 0 -1
269 0 1 0.0000000000000000e+00 7.4243144775063019e+00 1.7062452036697564e+01 2.4249477398045336e+00 -3 -1 3
506 0 1 0.0000000000000000e+00 3.6189036033165207e+00 2.3158574342405771e+01 6.8537286752414985e+00 3 -2 0
102 0 1 0.0000000000000000e+00 6.4863763803956163e+00 1.6023718763904348e+01 1.1470903825925763e+01 1 -1 1
410 0 1 0.0000000000000000e+00 2.7871348821754278e+00 1.3222125290413047e+01 6.4223790247604358e+00 2 -1 0
33 0 1 0.0000000000000000e+00 1.1270714307193169e+01 7.8818121434487907e+00 9.0674212366915299e+00 0 -5 2
297 0 1 0.0000000000000000e+00 2.1407042456148169e+00 2.4706945624000532e+01 8.3392004904272579e+00 -2 0 1
444 0 1 0.0000000000000000e+00 2.8821748794579727e+00 2.5953185895591324e+00 1.2674103383374133e+00 -4 2 -1
294 0 1 0.0000000000000000e+00 2.1829123758838183e+00 1.6201124903534918e+01 1.1887963362879626e+01 2 3 1
105 0 1 0.0000000000000000e+00 1.0747807300353196e+01 1.4205095177317363e+01 9.5962147544550671e+00 1 1 0
118 0 1 0.0000000000000000e+00 6.2188723001085568e+00 1.8773991296678417e+01 9.8951380863861385e+00 2 -2 0
156 0 1 0.0000000000000000e+00 7.8667727731663142e+00 1.0383014832339802e+01 2.4644620756515656e+00 2 1 1
479 0 1 0.0000000000000000e+00 9.1079293948860904e+00 1.7462847662053093e+01 1.1509446952034528e+01 2 3 2
289 0 1 0.0000000000000000e+00 5.7436808432651736e+00 4.1417867069226242e+00 8.7891665234770109e+00 1 2 -2
285 0 1 0.0000000000000000e+00 8.3249584151196316e+00 5.3460647084389032e+00 4.9443019313274723e+00 -3 1 1
422 0 1 0.0000000000000000e+00 1.0032771660723920e+01 1.6870540920688207e+01 2.6623906456384270e+00 -1 -1 0
241 0 1 0.0000000000000000e+00 9.6042764891891572e+00 1.9644468498691943e+01 7.9166778431495581e+00 1 2 4
504 0 1 0.0000000000000000e+00 6.5041694246645694e+00 1.7610287900742008e-01 3.3883290932299981e+00 -2 1 1
103 0 1 0.0000000000000000e+00 4.5632769303140179e+00 6.4969302267435438e+00 7.9278243069198364e+00 1 1 3
271 0 1 0.0000000000000000e+00 2.2318056673073605e+00 5.8940314290093321e+00 1.2144171287269385e+01 2 4 -1
299 0 1 0.0000000000000000e+00 2.5556017172275491e+00 2.0897896007998085e+01 1.0040054065082209e+00 0 -3 -3
447 0 1 0.0000000000000000e+00 4.3964787014878022e+00 1.4837223192866945e+01 7.4785084289676196e-01 0 1 3
403 0 1 0.0000000000000000e+00 8.6543533332087801e+00 1.3156816937587253e+01 1.3758270491503155e+00 -1 0 -1
53 0 1 0.0000000000000000e+00 2.1146216026562721e+00 6.3272694881460811e+00 9.5171143569517547e+00 2 0 -2
420 0 1 0.0000000000000000e+00 8.1360355728456319e+00 2.0438593840575557e+01 1.0421364886296514e+01 -2 -2 1
256 0 1 0.0000000000000000e+00 8.4329838772839576e+00 4.0651821609406458e+00 7.3054619498269773e+00 1 0 -2
467 0 1 0.0000000000000000e+00 9.3656253210802429e+00 2.3181185919381861e+01 5.5854888588938110e+00 -4 1 -1
208 0 1 0.0000000000000000e+00 1.7315579732354971e+00 1.5662402636467412e+01 5.6537521220136444e+00 -3 2 0
417 0 1 0.0000000000000000e+00 6.8565897216985672e+00 1.6811120319295462e+01 6.9770424052954017e+00 1 -2 2
492 0 1 0.0000000000000000e+00 6.1724161155489039e+00 9.2334462865285190e+00 4.5873541673332570e+00 -1 0 2
32 0 1 0.0000000000000000e+00 1.2124720518233081e+01 1.9810747114597845e+01 1.0624857226319159e+01 -4 -1 -1
138 0 1 0.0000000000000000e+00 8.2374258088991095e+00 2.0845354925243321e+01 4.0463443116575846e+00 -2 -2 0
366 0 1 0.0000000000000000e+00 7.9723677218862772e+00 7.4820514749509108e+00 5.9520447388380573e+00 -1 0 0
471 0 1 0.0000000000000000e+00 3.3516589600503748e+00 7.5458905967217341e-02 3.5720578312612250e-01 1 0 1
214 0 1 0.0000000000000000e+00 2.4151322710924585e+00 2.0579472674557678e+01 6.0056160950719191e+00 -5 0 2
434 0 1 0.0000000000000000e+00 1.0370644092240497e+01 1.0656286470248945e+01 4.4160585222232616e+00 0 1 -3
309 0 1 0.0000000000000000e+00 6.8160807085029615e+00 5.5470518034942815e+00 1.1039522094897919e+01 0 0 2
185 0 1 0.0000000000000000e+00 8.7191773622242827e+00 9.9439476666800832e+00 9.7267808533305491e+00 -1 -2 3
167 0 1 0.0000000000000000e+00 7.4548735341926049e+00 1.1791522091886828e+01 1.1451505840302252e+01 -3 -3 2
81 0 1 0.0000000000000000e+00 1.1299724066472741e+01 1.4955093376286756e+01 4.3107668742107288e+00 3 -1 0
330 0 1 0.0000000000000000e+00 4.3820938536761185e+00 1.7566477527386222e+00 9.5315714958276647e+00 0 0 -1
131 0 1 0.0000000000000000e+00 3.4949444969152732e+00 9.6585688855816407e+00 5.6700764093773790e+00 -2 -2 2
416 0 1 0.0000000000000000e+00 8.1353484916394230e+00 1.8181047051049257e+00 5.8856055104583627e+00 4 0 3
486 0 1 0.0000000000000000e+00 5.0024997293170621e+00 2.0773230407542790e+01 7.8889015414786945e+00 1 -3 -1
144 0 1 0.0000000000000000e+00 1.0731114514637506e+01 5.0003924861316760e+00 8.4978305602919146e+00 0 -1 0
52 0 1 0.0000000000000000e+00 1.1836362895257057e+01 2.2853026973599590e+01 1.0018888554597442e+01 1 0 -1
511 0 1 0.0000000000000000e+00 1.8788934762286580e-01 1.9685292128907719e+01 7.4304328880633497e+00 2 0 1
201 0 1 0.0000000000000000e+00 1.0614676387291528e+01 7.6506595324953064e-01 1.5591121959161089e-01 -2 0 3
92 0 1 0.0000000000000000e+00 1.0439119880493719e+01 2.0810464502852760e+01 1.1426257619801448e+00 0 1 2
211 0 1 0.0000000000000000e+00 2.8976026230142998e-01 2.1507921576636996e+01 9.3221912766491375e+00 2 0 -1
507 0 1 0.0000000000000000e+00 3.1175283399004070e+00 1.9654378397706338e+01 1.1370762595470547e+01 0 -2 1
393 0 1 0.0000000000000000e+00 4.7903216908272572e+00 2.5147062344246596e+00 1.2389345288833230e+01 0 0 -4
215 0 1 0.0000000000000000e+00 2.2107246331296423e-01 2.6528563226782675e+00 3.0148905866084874e-02 0 2 0
421 0 1 0.0000000000000000e+00 1.0450809362895285e+01 5.9126013515153613e+00 1.6146849888611570e-01 -1 -5 2
338 0 1 0.0000000000000000e+00 4.7867502303941922e+00 1.2582105929742761e+01 1.2336158004636085e+01 -1 -1 3
334 0 1 0.0000000000000000e+00 3.4389032295846969e+00 1.9374897934722675e+01 1.6333032727693997e+01 -1 0 2
386 0 1 0.0000000000000000e+00 9.5786472248377841e+00 2.1936333983893917e+01 1.6671679434548523e+01 2 2 -2
350 0 1 0.0000000000000000e+00 2.1818420571922208e+00 4.6498745906607111e+00 2.1184990170339674e+01 -2 0 0
116 0 1 0.0000000000000000e+00 1.1314821307515519e+00 4.0613946893447075e+00 1.4756897131904164e+01 2 2 -1
164 0 1 0.0000000000000000e+00 3.8899167569358566e+00 3.5667852071946884e+00 1.8903537039210846e+01 -2 1 -3
300 0 1 0.0000000000000000e+00 7.8822033759974977e+00 2.0106053310560469e+01 1.7599740848224386e+01 -2 2 -3
387 0 1 0.0000000000000000e+00 4.3952236045626885e+00 2.4076003506353518e+00 1.5523467082246093e+01 -2 3 3
402 0 1 0.0000000000000000e+00 6.2120111760776506e+00 6.3953022042262777e+00 1.5370269586841975e+01 -3 0 -1
39 0 1 0.0000000000000000e+00 1.2129558665604863e+01 2.3883342816639917e+01 2.4009543333756199e+01 -3 -1 -1
502 0 1 0.0000000000000000e+00 4.0410881288846383e+00 2.2758943653245723e+01 1.8528556104369528e+01 1 0 2
282 0 1 0.0000000000000000e+00 3.9884083322603390e+00 1.8846466187484623e+01 2.0193270085236584e+01 1 0 -1
345 0 1 0.0000000000000000e+00 6.3037237990680595e+00 1.1168425938116176e+01 1.9692782693460281e+01 -4 0 -1
41 0 1 0.0000000000000000e+00 8.4841850539898331e+00 1.8555846181213020e+01 2.3874600485940327e+01 -1 -1 0
121 0 1 0.0000000000000000e+00 9.1114281354195708e+00 1.2599695376285160e+01 1.3406064544299644e+01 1 2 5
339 0 1 0.0000000000000000e+00 9.4097083818732052e+00 4.8635529965579822e+00 1.8327020210364793e+01 -1 3 -3
152 0 1 0.0000000000000000e+00 6.5472317665122697e+00 9.4876871490621753e+00 1.3782823876217083e+01 2 0 0
443 0 1 0.0000000000000000e+00 5.4469262883509240e+00 2.0753434753268593e+01 1.7268294706328838e+01 1 -1 -2
352 0 1 0.0000000000000000e+00 2.0928415275277752e+00 1.6905391137274066e+00 1.3563111746470959e+01 3 -1 1
347 0 1 0.0000000000000000e+00 4.8138821258727560e-01 1.2340230599716609e+01 1.8301154454335084e+01 3 0 0
135 0 1 0.0000000000000000e+00 9.7609951052208412e+00 2.0576487713525573e+01 2.2908854187435892e+01 -3 -1 -2
361 0 1 0.0000000000000000e+00 8.4284047507232049e+00 7.7419418847109602e+00 1.7678430339954552e+01 4 -1 -1
365 0 1 0.0000000000000000e+00 8.8417424330815582e+00 1.8337149322133892e+00 1.8214098623801874e+01 0 1 -1
175 0 1 0.0000000000000000e+00 1.1615210258048974e+01 2.0773764751901936e+01 1.8178234245655240e+01 1 2 1
357 0 1 0.0000000000000000e+00 8.9586332220060971e-01 2.2679134591257252e+01 1.7714002388775818e+01 2 1 0
489 0 1 0.0000000000000000e+00 5.8899991810017560e-01 1.1395643761254517e+01 1.4789478830686102e+01 0 1 1
281 0 1 0.0000000000000000e+00 1.0906106051213730e+01 7.5631504784614449e+00 1.6695361244484971e+01 1 1 1
273 0 1 0.0000000000000000e+00 1.0279666577494107e+01 1.6438105430731852e+01 2.4501788946075493e+01 -1 0 -2
351 0 1 0.0000000000000000e+00 1.0922600316416942e+01 1.0998580210532978e+01 2.3835792892849625e+01 -1 1 3
206 0 1 0.0000000000000000e+00 2.9560709408520798e+00 1.4493888852109830e+01 2.0673389734895615e+01 -1 -1 0
313 0 1 0.0000000000000000e+00 4.3852882366685755e+00 1.8257631500759729e+01 1.3655107082178382e+01 3 -2 -1
261 0 1 0.0000000000000000e+00 9.5311942944074985e+00 1.2784535423531668e+01 2.1279757207892928e+01 -1 -2 -1
212 0 1 0.0000000000000000e+00 7.9146707205480216e-01 2.2345144859622202e+01 2.2365395275705666e+01 2 -1 0
303 0 1 0.0000000000000000e+00 2.0593516310200419e+00 5.8869855960190831e+00 2.4530462190516353e+01 2 -1 1
381 0 1 0.0000000000000000e+00 1.0342936963260364e+01 2.4200164652283118e+00 2.2319866899858475e+01 3 -2 -2
399 0 1 0.0000000000000000e+00 1.0607637479549609e+01 7.1249854598755027e+00 2.2426844008985086e+01 0 -1 -2
93 0 1 0.0000000000000000e+00 3.3580241586861179e+00 2.3394871097828727e+01 2.3154396037259481e+01 -2 -2 -1
124 0 1 0.0000000000000000e+00 1.0532027062136718e+01 1.3701230886638639e+01 2.4781516587611939e+01 2 0 -1
503 0 1 0.0000000000000000e+00 3.8943742818562805e+00 4.7872483634218419e+00 1.6466390561692272e+01 2 1 1
359 0 1 0.0000000000000000e+00 7.2343894367329886e+00 1.3898317669207339e+01 1.5245143352471512e+01 0 2 -2
169 0 1 0.0000000000000000e+00 1.1440380301607178e+01 1.7890642810041285e+01 1.7550922901778030e+01 -2 -1 1
142 0 1 0.0000000000000000e+00 4.5409781538070924e+00 2.0591114680164395e+01 2.3921386001791646e+01 -1 -1 -4
431 0 1 0.0000000000000000e+00 1.2176052127943684e+01 1.3548371538874008e+01 2.1772907275246652e+01 0 -1 0
95 0 1 0.0000000000000000e+00 2.7846005386860697e+00 9.7167127279434018e-01 2.1720132848057034e+01 1 1 -3
400 0 1 0.0000000000000000e+00 6.8181804315096999e+00 1.9291435376349334e+01 1.3366320184340511e+01 -2 -1 0
94 0 1 0.0000000000000000e+00 6.0374104122514609e+00 2.1485031678226150e+01 1.4527365667742979e+01 -1 1 0
432 0 1 0.0000000000000000e+00 7.4618341470135849e+00 1.1695592236299888e+01 1.6537589183001067e+01 0 -1 -1
346 0 1 0.0000000000000000e+00 1.5496435278289200e+00 1.3651162043890659e+01 1.4072758142135532e+01 0 -2 2
263 0 1 0.0000000000000000e+00 9.0419332345063346e+00 1.6478319989356677e+01 2.1434536179370944e+01 -1 0 -2
115 0 1 0.0000000000000000e+00 7.6975627067200563e+00 2.4103724539192548e+00 2.1392138020948877e+01 -1 4 -1
283 0 1 0.0000000000000000e+00 1.0297229901861073e+01 1.6253917880555839e+00 1.5564408253938822e+01 0 0 0
176 0 1 0.0000000000000000e+00 2.9825895291035311e+00 1.4349978905250335e+01 1.6185957819436872e+01 1 1 0
182 0 1 0.0000000000000000e+00 8.0817172960931352e+00 1.7821650568018974e+01 1.6267807042701321e+01 0 1 -4
278 0 1 0.0000000000000000e+00 1.0366663439793509e+01 6.5703647576908777e+00 1.4283659748984775e+01 1 3 3
134 0 1 0.0000000000000000e+00 1.1034758211092113e+01 2.4119506434769768e+01 1.4151063409830016e+01 2 -1 2
501 0 1 0.0000000000000000e+00 3.6539519936777705e+00 3.2054472284149922e+00 2.3361531223257749e+01 0 -2 2
409 0 1 0.0000000000000000e+00 2.3212069715703030e+00 9.4625351372220763e+00 1.7635348354035756e+01 3 0 1
112 0 1 0.0000000000000000e+00 3.5176418718282125e+00 1.7650024339707187e+01 2.4477239873362421e+01 2 -3 -3
80 0 1 0.0000000000000000e+00 1.4284341486394254e+00 2.1045145534601005e+01 1.5389159177683187e+01 4 2 0
253 0 1 0.0000000000000000e+00 6.9882700082589269e+00 3.4889756778893144e+00 2.3524485669933291e+01 -1 1 1
383 0 1 0.0000000000000000e+00 1.3468329734911297e+00 2.0286163350740671e+00 1.9116673781506641e+01 -1 3 1
500 0 1 0.0000000000000000e+00 6.9698324124264461e+00 4.4997510501411453e+00 1.9874899157671791e+01 0 2 3
442 0 1 0.0000000000000000e+00 6.1677231756565609e+00 9.2860347481830114e+00 1.6866652958170747e+01 -1 1 1
406 0 1 0.0000000000000000e+00 4.1400911805256726e+00 1.1439242920006016e+01 1.5258808149775852e+01 1 -2 0
200 0 1 0.0000000000000000e+00 4.1370351231331082e+00 8.2776691646242213e+00 1.3106402240835651e+01 3 0 -2
495 0 1 0.0000000000000000e+00 6.0217086780157780e+00 2.2893449687476959e+01 2.1924591771209265e+01 4 -1 -1
306 0 1 0.0000000000000000e+00 2.9434379956757972e+00 4.4841176803412874e-01 1.7557316169268212e+01 1 2 -3
433 0 1 0.0000000000000000e+00 7.9797055007750934e+00 2.4425192029858195e+01 2.3245585853889189e+01 -2 -3 -1
375 0 1 0.0000000000000000e+00 8.2729880214019165e+00 4.7521741854800181e+00 1.5532004451805287e+01 3 4 -1
435 0 1 0.0000000000000000e+00 9.1609862909363962e+00 8.6339812881572495e+00 1.3063392653653599e+01 0 0 -1
178 0 1 0.0000000000000000e+00 1.0598119203920747e+01 1.1077773844971306e+01 1.5416393704645285e+01 4 0 -2
120 0 1 0.0000000000000000e+00 1.1517736327256518e+01 1.3869018171574114e+01 1.6664158679488907e+01 2 -3 0
512 0 1 0.0000000000000000e+00 1.8822747415205812e+00 2.1172263806312309e+01 2.0030451493164485e+01 0 0 1
64 0 1 0.0000000000000000e+00 1.1891760304980318e+01 1.6333788463413249e+01 1.5438580852804931e+01 -2 -1 -2
83 0 1 0.0000000000000000e+00 1.6906241872358607e+00 1.7218130540154817e+01 2.0819464360697090e+01 -1 1 1
65 0 1 0.0000000000000000e+00 1.0152359028173661e+01 2.3577182120474198e+01 2.1550649818115211e+01 3 -1 -3
168 0 1 0.0000000000000000e+00 1.8478428318703564e+00 1.7168146152376330e+01 1.6620265626554691e+01 2 0 -2
320 0 1 0.0000000000000000e+00 8.3738507424102071e+00 1.0091149494267512e+01 2.3278783136823236e+01 1 -3 2
205 0 1 0.0000000000000000e+00 5.8949156379519350e+00 1.4209634206181928e+01 1.9752038918235471e+01 -1 -3 0
246 0 1 0.0000000000000000e+00 4.9678415800836877e+00 1.6605467598439098e+01 2.2259321156723779e+01 -2 -3 2
62 0 1 0.0000000000000000e+00 1.0442082615761450e+00 1.4906069917106448e+01 1.8404672632993069e+01 -1 -2 -1
248 0 1 0.0000000000000000e+00 3.1084935569937522e-01 1.0935763747617113e+01 2.0515602133194456e+01 0 -2 -2
8 0 1 0.0000000000000000e+00 6.9371607490328158e+00 1.5469461072126437e+01 1.7299240534254899e+01 -1 -1 -3
292 0 1 0.0000000000000000e+00 4.0045715746678301e+00 7.5384960276165920e+00 1.8051356355500914e+01 1 0 0
311 0 1 0.0000000000000000e+00 8.1048690659167608e+00 2.1134250040723316e+01 2.0061730409679946e+01 3 -1 -1
63 0 1 0.0000000000000000e+00 8.4524227006207848e+00 9.3415077625652305e+00 2.0410744629732307e+01 -2 0 0
19 0 1 0.0000000000000000e+00 9.6242836685498308e+00 1.7989274805164193e+01 1.4230808582456733e+01 1 -1 1
86 0 1 0.0000000000000000e+00 3.8002803166346806e+00 1.1720216338704102e+01 1.8136357441152136e+01 0 0 1
177 0 1 0.0000000000000000e+00 9.1132602737665067e+00 2.3590423364433761e+01 1.8802480698059739e+01 -2 1 1
58 0 1 0.0000000000000000e+00 7.9200056329028907e+00 2.5405025734476241e+00 1.4691834550623932e+01 3 2 -1
49 0 1 0.0000000000000000e+00 6.2942668526931138e+00 2.4314866671315080e+01 1.8921396763350693e+01 -1 0 3
150 0 1 0.0000000000000000e+00 1.1059075112276340e+00 1.7908972384005907e+01 1.4101768305626516e+01 0 1 2
203 0 1 0.0000000000000000e+00 1.2442086893575204e+00 1.3721221158685465e+01 2.3079628998392707e+01 2 1 0
119 0 1 0.0000000000000000e+00 1.0988387628552287e+01 1.9091734503957831e+01 2.0812630486895642e+01 1 -1 2
143 0 1 0.0000000000000000e+00 4.3740281023931802e+00 2.3404318235378597e+01 1.3417937257769799e+01 1 -2 2
224 0 1 0.0000000000000000e+00 6.4358018811880546e+00 6.6114725970019101e+00 2.3695183772237648e+01 -2 1 3
3 0 1 0.0000000000000000e+00 4.9950958836560835e+00 1.4984729152830759e+01 1.4182684910398503e+01 2 0 -1
391 0 1 0.0000000000000000e+00 1.0621393156982382e+01 1.0478774975636830e+01 1.8279118481854653e+01 -1 1 -1
136 0 1 0.0000000000000000e+00 9.4599034856828350e+00 1.5777636183171497e+01 1.9053619192489407e+01 3 0 1
117 0 1 0.0000000000000000e+00 1.0740569895547470e+01 2.0521732613604904e+01 1.4470670151004688e+01 0 -2 1
78 0 1 0.0000000000000000e+00 8.3135053035021009e+00 6.8234675526708788e+00 2.1277528882752307e+01 2 -1 0
295 0 1 0.0000000000000000e+00 1.0935820172174211e+01 4.9643759374540206e+00 2.0874267128260918e+01 5 2 1
158 0 1 0.0000000000000000e+00 3.9878095406017451e+00 8.0700522215148425e+00 2.3548672047026471e+01 -1 -1 -3
223 0 1 0.0000000000000000e+00 7.1261337701587228e+00 1.4658022864603852e+01 2.2215301158057457e+01 -1 -2 -1
414 0 1 0.0000000000000000e+00 3.5099602113224333e+00 6.9730997484054846e+00 2.1017559099421483e+01 -1 0 0
324 0 1 0.0000000000000000e+00 1.1597222241595849e+01 4.4252041133005426e-01 1.8340650634027071e+01 0 1 2
411 0 1 0.0000000000000000e+00 6.4643609539271756e+00 8.7625984351185604e-01 1.6412250681171898e+01 -2 -1 -2
454 0 1 0.0000000000000000e+00 2.8359143201893793e+00 1.1618481926903685e+01 2.1066599190725157e+01 -1 1 -2
423 0 1 0.0000000000000000e+00 2.4138523694933323e+00 9.2273329811196341e+00 1.4728038354534071e+01 0 1 1
293 0 1 0.0000000000000000e+00 2.3440921337504578e-01 2.0393575664652836e+01 2.4130671800416231e+01 1 1 -3
310 0 1 0.0000000000000000e+00 9.3839345142473968e-02 2.3780700521991022e+01 1.2714964510343012e+01 1 0 -2
499 0 1 0.0000000000000000e+00 3.4085761695142297e-01 7.8934598705932961e+00 1.2482858764999008e+01 0 1 -2
439 0 1 0.0000000000000000e+00 6.2863277710841681e+00 1.1628114972233780e+01 2.2758637921579655e+01 0 -1 2
24 0 1 0.0000000000000000e+00 7.7160188121444788e+00 2.3406958786653945e+01 1.4984966296025968e+01 3 0 -2
170 0 1 0.0000000000000000e+00 5.2189655423070151e+00 1.1975147471960408e+00 2.0445759346849911e+01 0 -1 2
335 0 1 0.0000000000000000e+00 3.8231345536208470e+00 1.0739986765391990e+01 2.4005599831750395e+01 4 0 -1
373 0 1 0.0000000000000000e+00 6.4365910426061710e+00 1.9112989826994877e+01 2.1675199241407647e+01 0 1 2
429 0 1 0.0000000000000000e+00 8.2393908236619762e-01 6.7690652622009342e+00 1.5695037271617963e+01 -1 -1 0
497 0 1 0.0000000000000000e+00 2.2281365668819229e+00 2.3956985705162758e+01 1.4778440010991877e+01 -1 -3 0
494 0 1 0.0000000000000000e+00 4.4319940763211774e+00 1.6603249501079830e+01 1.8514888914556558e+01 2 1 0
204 0 1 0.0000000000000000e+00 1.2233876042380857e+01 9.1163144483613419e+00 2.1649871335844423e+01 -2 0 -3
268 0 1 0.0000000000000000e+00 8.7655138933979106e+00 1.3051146683181170e+01 1.8872279895163302e+01 1 1 0
147 0 1 0.0000000000000000e+00 6.5048202233344394e+00 3.5163168855009480e-01 1.2828481606728122e+01 1 1 -1
333 0 1 0.0000000000000000e+00 9.4151415994772747e-01 1.7210472037636698e+01 2.3643234747488421e+01 0 0 -1
430 0 1 0.0000000000000000e+00 1.2371236160220946e+01 4.1806055765769292e+00 1.3079420846455134e+01 -3 3 0
76 0 1 0.0000000000000000e+00 7.3561323743809481e+00 2.1920790743075756e+01 2.4074487888649848e+01 -2 0 0
35 0 1 0.0000000000000000e+00 5.0243425179271615e+00 5.2423593868263048e+00 1.3001107929395863e+01 1 3 0
274 0 1 0.0000000000000000e+00 1.3274008180042629e+00 8.3051792991030133e+00 2.1220258516769185e+01 -1 3 -1
382 0 1 0.0000000000000000e+00 1.7950252164603079e+01 5.8172166699539485e+00 1.0077772021653159e+01 -2 0 1
462 0 1 0.0000000000000000e+00 1.7292351943247326e+01 1.2711955164634627e+01 9.7126144857564203e+00 0 0 0
509 0 1 0.0000000000000000e+00 1.5412349139146004e+01 2.1037923042881459e+01 7.9627736063558374e-01 -1 -4 2
424 0 1 0.0000000000000000e+00 2.1349085015901572e+01 2.4528576306657889e+01 3.8502581920069918e+00 0 -1 2
451 0 1 0.0000000000000000e+00 2.2333674867949902e+01 8.1923928746133665e+00 1.1952378594118946e+01 -5 0 -1
171 0 1 0.0000000000000000e+00 1.6145133000164776e+01 8.8094983884182270e+00 8.0745702755403155e+00 -1 0 1
191 0 1 0.0000000000000000e+00 2.0309352626307550e+01 1.4873966939862362e+01 3.2973218303782899e+00 -1 1 1
18 0 1 0.0000000000000000e+00 1.8691396056676439e+01 1.7522431602677450e+01 1.1447854018309403e+01 -3 0 1
22 0 1 0.0000000000000000e+00 1.9859042725538728e+01 7.6364362521217348e+00 9.2774547636367792e+00 1 1 -3
50 0 1 0.0000000000000000e+00 1.4628346320297080e+01 1.8953809050343814e+01 3.2305878813562665e+00 -2 2 0
216 0 1 0.0000000000000000e+00 2.3219897543170852e+01 1.3295630425408623e+01 1.9640461855340368e+00 -1 0 -4
305 0 1 0.0000000000000000e+00 1.9116449747456116e+01 2.1481524699140387e+01 4.8300827923676382e+00 -2 -3 2
255 0 1 0.0000000000000000e+00 2.4633575150278862e+01 1.0231880401781297e+01 6.7196358080821703e+00 -2 1 2
418 0 1 0.0000000000000000e+00 1.9019146813444827e+01 7.0072034080004624e+00 6.8591324961673754e+00 1 -1 1
197 0 1 0.0000000000000000e+00 2.0718528452482929e+01 1.6278383642831422e+01 1.0181291426176097e+01 0 1 1
245 0 1 0.0000000000000000e+00 1.5504499714519360e+01 2.3834048999379974e+01 7.3916306140557309e+00 2 -2 -2
441 0 1 0.0000000000000000e+00 2.2736955182212597e+01 6.0255864543812354e+00 6.0289131810726957e+00 -3 1 1
331 0 1 0.0000000000000000e+00 1.4451891916505618e+01 1.7966739386398098e+00 9.5592746472460473e+00 0 -3 0
16 0 1 0.0000000000000000e+00 1.3083462040420383e+01 2.1825864945669679e+01 1.0710910665983264e+00 3 0 -1
107 0 1 0.0000000000000000e+00 1.4654231808347825e+01 1.6143534138172363e+01 2.6374892693063341e+00 1 2 0
480 0 1 0.0000000000000000e+00 2.1968445364895580e+01 2.7728264071384183e+00 3.6444595926120322e+00 0 -1 -2
360 0 1 0.0000000000000000e+00 2.2318771003783731e+01 4.5989579839841133e+00 1.0400178694933444e+01 -2 3 -1
217 0 1 0.0000000000000000e+00 1.3460519864027312e+01 1.9121320423250857e+01 7.8152095051797996e+00 -4 1 -2
487 0 1 0.0000000000000000e+00 1.6126945219903128e+01 2.3287154002197703e+01 4.8766792366646365e+00 0 -1 -2