LAMMPS data file via write_data, version 4 Jan 2019, timestep = 3000000

512 atoms
1 atom types

7.4739621077135610e-03 2.4827526037893424e+01 xlo xhi
7.4739621077135610e-03 2.4827526037893424e+01 ylo yhi
7.4739621077135610e-03 2.4827526037893424e+01 zlo zhi

Masses

1 18.0153

Atoms # atomic

373 1 7.5153662693823646e+00 3.1713593952610908e+00 8.2659885876149879e+00 45 40 -48
478 1 8.1740095479805908e-01 2.8574711652869897e+00 6.9439430083397760e+00 27 -8 22
8 1 9.8941105271787333e-01 2.8862957020433573e+00 2.4226885306656518e+00 -23 24 -22
71 1 1.2520314767573733e+01 8.2183781588693154e+00 4.0849255675080842e+00 61 -69 -70
179 1 7.5080214601908448e+00 2.4509794123068542e+00 1.2176285930100630e+00 -78 -71 -42
237 1 1.8683018223390985e+01 1.1552939926839947e-01 1.5801178019940634e+00 25 -23 -16
3 1 1.0070878561641439e+00 4.7909311116996705e+00 4.2638652684326566e+00 12 48 23
75 1 2.1916372701643621e+01 8.6910495998893893e+00 7.0823235864935601e+00 6 35 0
45 1 1.7211941204548548e+01 8.3371912625046729e+00 1.6595267976028778e+00 2 78 -75
224 1 1.1357539008696614e+01 3.0903932805090717e+00 6.2278343397443772e+00 51 -88 14
120 1 1.4390974661973397e+01 3.2121659540165584e+00 6.3162868569732689e-02 -2 -68 71
278 1 1.7818042607685928e+01 7.3203075050022237e+00 6.4429186017783708e+00 -88 -99 48
434 1 1.6081539512060626e+01 2.7198810660747719e-01 4.9270210697984336e+00 52 -34 -91
286 1 4.2673582453435754e+00 2.1385188823610526e-01 8.2960266206498115e-02 52 -20 16
56 1 1.3151627474687658e+01 4.7094508117815392e+00 4.9102673437271598e+00 -14 80 29
149 1 1.5393587395828048e+01 3.5121268564485364e+00 3.9755360622809937e+00 -51 58 -7
152 1 2.6993698172718976e+00 8.1868181610131359e+00 1.3058790712244799e+00 -66 -152 0
328 1 1.2000144070142607e+01 7.4745330658071552e-01 2.4152954576620171e+00 75 74 0
354 1 1.1200825919783862e+01 1.1065683965502819e+01 1.2310338366236493e+00 10 48 18
131 1 3.3613528704082833e+00 1.5885800561935486e+00 2.9185578156711625e+00 14 -21 -14
446 1 2.1475278240873599e-01 8.9561311003675961e+00 7.0484677404430158e+00 30 34 -16
238 1 2.4383603763803382e+01 6.1988184974531055e+00 6.0749718982804009e+00 41 24 -12
271 1 7.3648119879942187e-01 1.0896540531492912e+01 6.5012910060530538e-01 42 38 -49
42 1 9.4176503001803944e+00 1.0261595754284700e+01 7.0115351075020413e+00 -4 69 -77
497 1 3.9001989101797543e+00 6.5049940367618797e-01 7.4451477612632964e+00 3 14 16
232 1 2.1699390807206949e+01 4.9645304417811662e+00 6.1360451313788964e+00 90 38 38
408 1 1.9475941007735042e+01 7.2595973057072030e+00 3.0667484173101998e+00 -134 32 64
255 1 3.5176835035098799e+00 1.2161917436863810e+01 2.0278333011386152e+00 -124 9 81
36 1 1.1081711940709146e+01 1.0397589206497246e+01 3.8132466698863294e+00 112 68 123
32 1 3.4775282976410535e+00 5.8440803735062445e+00 3.1884578251318452e+00 -55 114 -49
252 1 2.2767676518806017e+01 2.1146207130893449e+00 3.3327496836212891e+00 -55 -76 12
186 1 2.7917852794349884e+00 7.8656861084225929e+00 7.3237533311273602e+00 -24 167 35
196 1 4.4657577440003688e+00 7.8389245098570388e+00 4.7179323996981228e+00 9 24 21
412 1 1.4358708731859872e+01 8.9422072169787672e+00 1.9575303263380255e+00 -25 16 -65
28 1 1.7760210172777121e+01 5.6428304917684011e+00 4.3856712300812797e+00 11 37 32
247 1 2.3793197851652931e+01 7.4854726200470827e+00 3.4961183336271331e+00 11 -22 10
366 1 9.7478565903998078e+00 1.8757984444996367e+00 4.1132364112388844e+00 158 -12 -51
14 1 1.3605086973076842e+01 6.6005400203233968e+00 6.6004739092909119e+00 60 -25 39
509 1 2.0807660776984395e+01 2.2516540853602178e+00 3.2991128693482569e-01 117 48 -75
72 1 9.3133889126979099e+00 7.9924465094170518e+00 4.7907641380628929e+00 24 61 52
151 1 2.1238368892906202e+01 8.9710426648512378e+00 4.1559670644783013e+00 -39 -38 -4
270 1 1.5475678832282160e+01 8.7126650323989789e+00 6.5792431424754936e+00 19 131 104
58 1 4.8459659056887266e-01 9.6905919312090347e+00 4.3650261957981815e+00 -1 -18 -2
163 1 1.2411922941611655e+01 5.8895188989433072e+00 2.5118271495703373e+00 -48 -69 10
180 1 5.1336230932301907e+00 3.4687436680375283e+00 2.7617182391405204e+00 7 286 -30
334 1 1.8677661179162786e+01 9.9530477561724560e+00 5.8191374348406324e+00 42 78 21
259 1 2.2102727965248050e+01 1.1944439400074270e+01 6.6726790860551537e+00 -1 50 30
104 1 1.2019089593220945e+01 3.2112496821877712e+00 1.2446428393956317e+00 83 30 -12
323 1 8.1725227316224487e+00 4.2333977336041180e+00 3.9169784859503598e+00 11 -101 23
140 1 2.2391161107691296e+01 5.0394078823299138e+00 1.3686285150202144e+00 -71 42 -21
451 1 4.8510976214858843e+00 4.7769095831084130e+00 5.8937838794512167e+00 67 38 -22
82 1 7.4029117071772896e+00 5.2093907226986156e+00 6.3415568562740638e+00 0 0 12
430 1 1.3322445636372208e+01 1.0937113999713954e+01 5.9879990864492871e+00 46 48 9
221 1 6.6865389519659475e+00 9.1556170706239399e+00 4.5562062370027796e+00 2 4 39
61 1 1.8424104716879178e+01 1.1938024345117867e+01 1.5135832465684205e+00 93 -54 96
43 1 3.1221231669850242e+00 2.4553682390236560e+00 5.4840983387149329e+00 -6 -16 10
231 1 2.0772009864684019e+01 1.1210503367573097e+01 2.6196260616306009e+00 -48 11 27
321 1 1.6060468575728976e+01 1.0307289706476444e+01 4.1836226681516147e+00 36 33 -72
144 1 2.3822877673192540e+01 1.1584855951374140e+01 2.8017746648589665e+00 -13 36 46
283 1 1.3780738408961200e+01 1.7152002623195488e+00 6.5121546232729743e+00 93 -32 70
329 1 2.0987155136357391e+01 4.3356959935796109e+00 3.6071362951451809e+00 8 -140 -53
258 1 2.4628881727276241e+01 6.4246278316300423e+00 1.2191253301372762e+00 119 -53 65
355 1 1.8391267340932590e+01 2.8561823675634641e+00 3.2574851300518155e+00 -31 -2 66
459 1 4.1271871727726470e+00 1.2079190608882515e+01 5.3352915579760163e+00 59 -10 51
50 1 1.6011741841291020e+01 5.6764959441273630e+00 1.8938141874148360e+00 6 34 -36
291 1 2.0335789663734005e+01 6.2446595877407409e+00 5.2689220238192602e-01 27 101 81
455 1 1.8439665621195445e+01 4.2492497645220757e+00 6.3736679819460085e-01 46 96 23
431 1 6.7919617876282450e+00 6.1169945855664520e-01 7.4760425508559871e+00 -54 -37 -29
417 1 1.4954277493465916e+01 1.0167308226725507e+00 2.2618749814932171e+00 4 8 -17
98 1 1.8805286998499483e+01 1.9399952600658228e+00 7.5694601132286463e+00 68 70 0
348 1 2.0006116665179256e+01 6.4541262713593026e+00 7.7217742299842849e+00 -12 -16 18
510 1 1.1897048019884281e+01 1.0038263400350317e+01 8.2061743526365021e+00 -64 136 29
306 1 9.4288324157102661e+00 6.1578866451871743e+00 3.0358350236792342e+00 -1 63 -73
465 1 6.1741900238959149e+00 1.0831376865290878e+01 6.8086812609959200e+00 37 40 39
242 1 2.7623489830126369e+00 9.9194391780867459e+00 3.4912336095909922e+00 16 8 -55
110 1 1.8816707205494914e+01 8.3352390328029202e-01 5.2013892017293433e+00 24 -30 -26
265 1 7.2712057186958017e+00 1.0561281704316130e+01 2.0579664539216602e+00 -79 -46 59
346 1 2.2771033063037656e+01 2.4333458443954932e+00 6.6347326719296511e+00 51 33 -110
476 1 8.7427479769005423e+00 7.3952365300223315e+00 7.9213946502987840e+00 -29 -14 -59
463 1 8.7498512442940476e-02 1.1754988355207260e+01 7.6841334952960922e+00 -45 34 -33
165 1 1.6166005495079546e+01 3.1598342336345597e+00 6.9059922615752551e+00 86 -20 102
250 1 7.2846204148053397e+00 5.9488076622457742e+00 8.5736223287660873e-01 -9 10 169
168 1 1.1348496542050883e+01 7.2210747434776374e+00 8.2086397977866721e+00 93 -50 -55
335 1 1.5477462878455595e+01 5.2932422994670656e+00 8.0869133072780759e+00 17 -21 93
137 1 4.1028054388433741e+00 4.3839343615450863e+00 1.8551131997928200e-01 6 -15 65
489 1 1.1584556276284452e+00 4.4766014035608350e+00 7.6500450251076282e-02 75 196 -46
11 1 5.9881515495098432e+00 1.9725267164267446e+00 1.1290010942022596e+01 14 69 -48
266 1 1.2082702181647221e+01 6.5658039637345196e+00 1.0537819885817951e+01 30 -53 9
332 1 1.3781798090817590e+01 9.6842175702815450e+00 1.6337743567861722e+01 19 -29 -97
189 1 2.1688871465009147e+01 8.9118852623474893e+00 1.6139620294163606e+01 120 -55 -32
220 1 1.3231482609418466e+01 7.0908936567110681e+00 1.5483778008524105e+01 51 -6 6
496 1 1.5745162597789980e+01 6.6092353155061447e+00 1.4722786349391241e+01 2 -24 24
382 1 1.7410117039169779e+00 3.1537299085159440e+00 1.1260387907437119e+01 42 -6 46
218 1 3.1102899358400773e+00 3.3881453384457121e+00 1.3515591450710842e+01 -50 -10 -23
399 1 6.1294182663993633e+00 8.9945211484922361e+00 1.3020918397057862e+01 30 60 -19
404 1 8.6917648841024704e+00 1.1513350209543669e+01 1.6267339411436911e+01 -23 137 55
350 1 3.4087181881539963e+00 1.2050542368686603e+01 1.4247595418915765e+01 28 1 43
164 1 1.2427138424678104e+01 1.9042697330259539e+00 9.4548410351502703e+00 51 28 129
326 1 1.7247750751756410e+01 2.8130972848034999e+00 1.5445695774470016e+01 31 119 1
99 1 1.4747140162987936e+01 1.0714077176895732e-01 9.2968672599670246e+00 2 -6 40
127 1 1.2695278549539101e+01 2.1642648941939857e+00 1.4784541829845406e+01 53 68 69
101 1 9.6250230679503481e+00 5.3584967378437200e+00 1.1528772230798092e+01 -20 -26 69
331 1 1.0328835562669159e+01 4.9948669808664077e+00 1.5393041667264718e+01 29 23 -10
172 1 2.2790281560046420e+01 3.4505195089720897e+00 9.3527165861463342e+00 -25 -113 42
201 1 1.4554255840450001e+01 2.7197023678517800e+00 1.2361332413924996e+01 -99 -45 38
281 1 4.8156720288948746e-01 1.7349954932080203e+00 1.5400445795239374e+01 37 -27 112
418 1 3.4625916038650364e+00 9.5329602057141027e+00 1.3213109936418961e+01 -64 -72 -6
264 1 1.7260810653818723e+01 7.6405290604396328e+00 9.4491851413529240e+00 -110 34 34
312 1 7.5831374070414901e+00 1.1182617114146339e+01 1.3770077077772935e+01 -10 11 17
19 1 2.1331904562046354e+01 1.0647442535990050e+01 8.7966215185669103e+00 5 42 74
361 1 2.3991404575103449e+01 1.0380700476106572e+01 1.4789981212119965e+01 -55 123 -10
181 1 2.4342004203535396e+01 1.1402888248626924e+01 1.1941685703533224e+01 73 71 -53
439 1 1.8432356014178481e+01 1.0715983104068252e+01 8.6895928198905228e+00 25 -37 -73
288 1 1.7978045847788724e+01 8.3498628618156836e+00 1.5068049401792743e+01 -68 -31 -83
500 1 2.0565910282397059e+01 4.7636722363875732e+00 1.3311962551784063e+01 82 -73 57
420 1 1.4800975768088353e+01 8.9436857136464507e+00 9.4431079655019818e+00 32 -27 114
483 1 1.3585902899487003e+01 4.4881723278285248e+00 1.0269193896980816e+01 44 62 23
300 1 1.6958768739957168e+01 1.0413201564006791e+01 1.3204710862937555e+01 -86 60 29
440 1 2.0352011292706113e+01 8.9345886695451533e+00 1.1878579673225389e+01 -35 -41 114
272 1 2.0640164365415792e-01 5.1769877345339870e+00 8.6257035961977184e+00 -28 -2 99
38 1 1.8679413017220234e+01 1.0977876214112174e+01 1.1426358103351120e+01 -22 41 -16
106 1 1.1679262556733287e+01 1.2106056120277085e+01 1.0363282244969131e+01 12 -18 1
97 1 1.5199136619874977e+01 1.2686044871014743e+00 1.6144269889134172e+01 29 54 -15
113 1 9.6223106125425293e+00 1.0592577621708843e+01 1.2105266523873059e+01 -56 22 87
202 1 1.0440290551373282e+01 7.3162117138371074e-01 1.1186998191092616e+01 33 87 -20
475 1 1.0820277322977383e+01 4.6334077032259458e-01 1.4040955414377942e+01 13 -6 -7
492 1 1.9964331712782570e+01 2.3227674812003269e+00 1.5021137547202843e+01 8 -18 47
339 1 1.6670858757438598e+01 4.1360219400318270e+00 1.3172725661988371e+01 31 55 2
81 1 2.1436349185896450e+01 1.1341782244518491e+01 1.3836236922553120e+01 59 94 -11
512 1 2.2941050351545904e+01 4.5249800965409213e+00 1.2144696848646230e+01 -27 -25 96
479 1 1.5215610609042891e+01 8.2608171511026551e+00 1.2270664354030160e+01 -16 -7 -59
136 1 1.2267980511120079e+01 1.1421622858148861e+01 1.3937197357096549e+01 50 -76 108
353 1 4.3207121220165705e+00 9.4934353238891767e+00 8.8727318632475516e+00 -163 63 98
254 1 9.4556676800944484e+00 7.9707766753057934e+00 1.3035262784396169e+01 40 98 34
198 1 2.3511499527676417e+01 1.0561686667749015e+00 9.8736492234494779e+00 -49 41 9
70 1 1.4340437801392749e+01 1.1654685467981484e+01 1.0212030874557005e+01 98 -4 13
157 1 1.9922395341817552e+01 4.1862223194735853e+00 9.3132482008160924e+00 -5 -25 66
392 1 4.8800991355230492e+00 1.2072367072653500e+00 1.4650296118816012e+01 20 6 -61
456 1 1.3474673729183757e+00 8.1263369301482005e+00 1.4686939347243861e+01 -31 -33 15
31 1 8.5944579543157449e+00 1.0292997813022682e+01 9.6719162652729196e+00 -57 -11 124
453 1 1.6737775866807706e+01 1.9757752374849080e+00 9.9177585580682823e+00 66 5 7
315 1 2.4875862048824726e+00 6.3334226310839199e+00 1.1118538276680441e+01 -70 98 89
214 1 6.4072138493473068e+00 8.6507731012856919e+00 1.0324978648551950e+01 24 94 -2
216 1 2.9638437303686067e+00 1.4749984990187479e+00 1.0053428035514031e+01 -37 0 164
471 1 1.6300133733065017e+01 1.2261897549459702e+01 1.6417381716435091e+01 -88 -17 41
293 1 5.2873592483380465e+00 5.4245851112565981e+00 1.3171817130123351e+01 7 127 53
460 1 1.0506908699372802e+01 3.8301663869439455e+00 8.7863787678513070e+00 -118 128 32
330 1 2.1117281036479647e+00 9.3363593526891595e+00 1.0799830861838194e+01 -20 29 36
327 1 8.8766434701556065e+00 4.2043639525185100e-01 1.5971182241928334e+01 88 -3 4
289 1 1.2818596109861422e+00 4.8357599441314498e+00 1.4949347684194986e+01 -24 -1 -55
169 1 5.3604252597949422e+00 4.2154589741778379e+00 1.0233108709128084e+01 -2 34 -2
249 1 1.8812384881449749e+01 3.1121700801974588e+00 1.1778530848628890e+01 -71 -54 -32
481 1 3.6988875660866265e+00 5.4697560722821166e+00 8.4751409767030168e+00 42 -17 -21
67 1 1.8416056364772803e+01 6.8091484170797427e+00 1.1641803781905619e+01 -18 -76 -42
13 1 1.2518312195973584e+01 8.4863872916956584e+00 1.3187412740010508e+01 128 -5 78
442 1 2.4187116765079317e+01 2.0748119748715590e+00 1.2627979809758845e+01 23 -13 -92
15 1 7.5133086087169199e+00 5.8328669676961109e+00 1.0222723323392078e+01 12 -6 -122
68 1 9.5255499851075740e+00 3.1071157051239120e+00 1.3292265656987931e+01 14 -23 14
203 1 2.5809052830390340e+00 1.2146035246084837e+01 1.0222227242487309e+01 105 -119 78
236 1 2.0473371252764437e+01 7.6180142732001119e+00 1.4193439081040134e+01 44 77 68
484 1 2.2745850657137762e+01 9.4862201157795880e+00 1.0904689183675549e+01 -58 -24 90
284 1 2.4720926492228347e+01 6.4520012366548150e+00 1.2511259093438541e+01 -83 -69 -10
226 1 2.4616521458074654e+01 7.9739106129646853e+00 9.6346897632010222e+00 2 18 -1
193 1 4.2010362307134521e+00 7.0397658944030672e+00 1.5164416624593390e+01 -70 20 -16
173 1 6.9374818664813223e+00 2.7636059997940170e+00 1.3905734237789106e+01 37 47 -9
154 1 7.7761789915286696e+00 7.6276518769179660e+00 1.5243274721121272e+01 102 -28 14
126 1 7.1292187118361685e+00 4.8056863441317414e+00 1.5917962900848973e+01 -27 -40 -29
178 1 1.5249132818419394e+01 1.2339786064243569e+01 1.2571182138098152e+01 68 31 -61
177 1 2.1794784705218639e+01 5.2683707563710032e+00 1.6190986678793259e+01 -26 -46 40
388 1 2.2945343836714102e+01 6.5975925744688704e-02 1.6193206912344245e+01 71 -3 30
41 1 6.9626142025914461e-01 1.7741535779549261e-01 8.3628354440848707e+00 69 -5 30
422 1 1.7370020501689389e+01 1.0113574950061544e+01 2.4052789124484590e+01 -11 79 80
20 1 4.0303476965272331e+00 2.2233889475705069e+00 1.7066479890810964e+01 120 40 29
2 1 1.5892021686620300e+01 6.0009278772135666e+00 2.3984176199090694e+01 -47 7 -9
150 1 6.0585676889905926e+00 1.7507553839698498e+00 2.1910880778006529e+01 76 -38 71
6 1 2.4551725068556582e+01 3.8606111562715797e+00 1.7444257946212556e+01 95 24 -33
374 1 1.0171485091015864e+01 6.6523362888096385e+00 2.4567269171035878e+01 -12 43 -9
25 1 1.8726018158119050e+01 5.8219070780044637e+00 2.0973667304894235e+01 55 -79 -55
261 1 2.0639658027943565e+01 1.0983240101121892e+01 1.7404315370801303e+01 13 49 -114
429 1 1.0082322711284937e+00 4.4790997312435593e-01 2.4267519318145311e+01 -24 -33 49
506 1 1.3851051490000524e+01 1.2075715695337223e+01 2.1993869054011054e+01 -22 -22 -6
480 1 2.3121736779877612e+01 1.5698338829387952e+00 1.8680331771432620e+01 7 -49 78
153 1 2.9375598034236612e+00 9.7817173279670158e+00 1.8832128472385822e+01 4 -10 70
370 1 1.2442986293510968e+01 5.7254386916930669e+00 1.8489274366555318e+01 -35 114 21
406 1 7.7152941778766024e+00 3.5969369900106476e+00 2.3016009628156180e+01 57 138 4
183 1 6.2894943275113233e+00 8.3826280069704637e+00 2.4342442954624538e+01 36 97 18
53 1 1.5469217888600346e+01 5.4952900220486516e+00 2.1028600401480844e+01 55 109 144
385 1 1.8241144159207401e+01 9.4952317916024640e+00 1.7647509228872671e+01 37 26 52
363 1 2.0769724609194946e+00 1.2365042687092229e+01 1.8416939864463348e+01 -21 -42 12
409 1 1.5095149946649551e+01 6.3987236460550125e+00 1.8477263360181311e+01 -68 84 71
79 1 1.9612179322125787e+01 1.0452254706167221e+01 2.2619633518904649e+01 -9 -86 99
311 1 1.3138834977998060e+01 6.9012409302297479e+00 2.4502220798543618e+01 11 -57 29
470 1 1.5307973970881063e+01 1.6838747089173987e+00 2.2610735784920809e+01 21 -35 -138
204 1 1.3304576169989641e+01 9.1850013088780518e+00 2.2158218455410680e+01 18 -17 -180
230 1 1.6298700361333967e+01 8.6929960060754983e+00 2.1292453617227785e+01 -1 -18 -138
342 1 8.0415406717566356e+00 6.5029823306916414e+00 2.2024104088686332e+01 27 -5 23
494 1 1.5410411830317365e+01 9.6215348185488700e+00 1.8714864775920393e+01 -10 57 -88
294 1 2.4610807836462776e+01 1.2401262605024838e+01 1.7064265306149547e+01 38 42 -68
371 1 1.5656161075237816e+00 1.6576131520597905e+00 2.1404517937369889e+01 -71 30 -57
498 1 2.6204084776980052e-01 3.6451743110855492e+00 2.0275956731940052e+01 43 14 4
21 1 1.9406296867390353e+01 1.2001818345498602e+01 2.0232004359849437e+01 5 -5 -109
37 1 1.2671710539063135e+01 1.1739768697581454e+00 1.8220858766042021e+01 54 28 -51
425 1 1.1506743623500906e+01 1.0834296870494953e+01 1.7096740368053105e+01 67 42 -7
433 1 9.8393431642636653e+00 7.8331874258055811e-01 2.3644833081935392e+01 16 -47 -39
493 1 2.0653838090602655e+01 7.7378516600335407e+00 2.2807895083107908e+01 -47 88 42
86 1 1.2442869575364503e+01 5.0178903696082457e+00 2.1938558124318444e+01 -43 -62 89
55 1 1.6502500326975218e+00 7.9738754527352809e+00 2.2528052553594890e+01 30 63 -16
94 1 3.7934547238938015e+00 2.4263667082496951e+00 2.3051935859431595e+01 -64 28 41
52 1 2.1852209555977080e+01 1.0544223525063837e+01 2.4745497657677653e+01 102 -93 136
91 1 2.3724932854481821e+01 9.7038093146933893e+00 2.0908371278604751e+01 -15 7 19
84 1 7.5305203119572708e+00 9.6541185917679364e+00 1.7752107744559193e+01 31 54 25
393 1 8.3473252822362358e+00 2.7126229745376436e+00 1.7738764668457378e+01 94 35 -80
461 1 1.9293106004546896e+01 6.6279974780391804e+00 1.7702587262740884e+01 1 37 -4
105 1 1.9134708801794126e+01 3.5448927760878330e+00 2.2516349199607056e+01 7 80 8
504 1 2.3743281929755032e+01 2.7208394172472055e+00 2.3946220044620972e+01 -42 -25 45
275 1 3.1818594641494213e+00 1.0080708711104185e+01 2.2660504315460518e+01 32 -12 25
269 1 1.8772029818168338e+01 8.8062347878309097e+00 2.0202360110830437e+01 22 -44 0
223 1 1.7582084993273643e+01 4.2857643511483834e-01 2.2937939587713942e+01 111 37 0
441 1 3.2040682484409149e+00 5.1308391107480071e+00 1.6898943402171032e+01 -9 -61 -11
160 1 5.0406896737042937e+00 6.4435946497770935e+00 2.1120516579535995e+01 -36 40 38
1 1 1.7486737464668483e+01 3.6030411144711509e+00 1.9287410966574310e+01 -64 -30 62
410 1 8.7653126694379893e+00 9.3526493859502899e+00 2.2329768245782734e+01 23 131 9
337 1 1.1254836603225430e+01 9.7776620086286536e-01 2.0672471018346485e+01 24 10 -49
30 1 5.7817842920352991e+00 5.9016477787329009e+00 1.8380491542161504e+01 -81 8 -13
194 1 4.9226414138014896e+00 9.1126432960777244e+00 1.6915867837205376e+01 44 108 5
297 1 2.2780586713400325e+01 1.1470522654887857e+01 1.9206887765816923e+01 8 39 -11
156 1 2.4037715807845430e+01 7.2801463216932989e+00 1.6696714879799543e+01 33 32 -22
415 1 1.1214955903041673e+01 3.3710907537091637e+00 1.7578213667761240e+01 -59 -41 25
320 1 2.0473960079056326e+01 4.7622683178687847e-01 2.2546295075931301e+01 25 83 30
107 1 4.8331283261738820e+00 8.9850183764016620e+00 2.0748476701480545e+01 -31 62 -138
502 1 2.2556312815269241e+01 6.7387980893743906e+00 2.0911104746418793e+01 -41 -22 -46
377 1 1.0932389126912685e+01 8.4756851048473756e+00 2.1144074205284554e+01 11 10 -105
507 1 7.3624541662685408e+00 1.0310756081532828e+01 2.0463906263395920e+01 -61 22 -12
24 1 1.7347193719043670e+01 5.3381447375487587e+00 1.6961525897583076e+01 32 -58 64
462 1 1.0449055690714072e+01 1.1844279816969348e+01 2.0200312614879159e+01 -76 17 33
372 1 2.0955185387691905e+01 4.9958059982687724e+00 1.9417533419112274e+01 13 -2 9
40 1 1.0270718876078295e+01 5.9806159547664981e+00 2.0419508243432180e+01 8 31 51
340 1 6.1018836552943911e-01 8.1820649172869242e+00 1.9267070779632412e+01 46 39 20
421 1 9.2954717964761766e+00 3.3773856703919907e+00 2.0348559765390267e+01 20 -7 76
240 1 8.7882835823098180e+00 6.6258738134421327e+00 1.7889198641501970e+01 -219 137 71
279 1 2.1921086778942037e+01 2.8301795145875785e+00 2.0995087038147314e+01 -41 162 45
219 1 2.1561075792438471e+00 5.8403305026959007e+00 1.9623627826983821e+01 -24 -11 -96
83 1 5.9156766900450037e+00 1.8696619313710372e+00 1.8728132459832352e+01 28 7 13
114 1 2.4664685491132815e+01 5.6604415070457899e+00 2.2290039882036023e+01 -4 15 -9
143 1 2.0059619072384269e+01 2.7125932611957984e+00 1.7764161180575762e+01 36 -7 8
280 1 1.0496177084920497e+01 8.8255537729419693e+00 1.8583654752505161e+01 12 -42 155
432 1 1.3772784075924662e+01 2.6344690637768973e+00 2.0819857664339743e+01 37 -51 2
487 1 3.6911703283496431e+00 7.0776109653271728e+00 2.4127588559675065e+01 30 42 -13
217 1 1.0762366507158879e+01 3.8691832392161722e+00 2.3835438204022331e+01 96 -36 70
46 1 1.4741207633187981e+01 1.2245904831177246e+01 1.9523793563179797e+01 37 -10 66
375 1 1.5685018391370065e+01 1.6189411333379882e+00 1.8961239667175342e+01 2 55 -118
225 1 4.7333384791906463e-01 1.1486173769134744e+01 2.2170518258115433e+01 25 78 20
253 1 4.9333001202320110e+00 1.0917506312739270e+01 2.4549097903152070e+01 1 14 -17
87 1 9.0341996017272308e+00 1.0679116971077846e+01 2.4766963096056017e+01 0 42 92
447 1 2.4213158498884098e+01 8.4465115594350166e+00 2.4372410204801081e+01 -5 -108 21
122 1 1.3289818347899638e+01 1.0305934827001927e+01 2.4802151325399606e+01 11 8 11
234 1 4.4827945012766230e+00 1.2091231142254070e+01 1.6676017392376821e+01 68 -14 16
191 1 3.5544603625780664e+00 2.3888809871127062e+01 3.8308971072485321e+00 48 -27 -18
358 1 2.2143985853357616e+01 2.4500765049337353e+01 6.4810893917516497e+00 -30 90 53
359 1 2.1093354226010494e+01 1.3529245977921935e+01 4.3234708208666666e+00 -46 34 8
227 1 8.0405193888525126e+00 2.4790695679513295e+01 5.2278437053751574e+00 122 105 5
490 1 2.3726387434771624e+01 2.1129186085032480e+01 1.5159243227287778e+00 12 -94 3
212 1 2.3189259093244353e+01 1.7849074329919915e+01 7.8120733521804562e+00 -11 -36 -37
438 1 1.0731288392318426e+01 1.5907119350495726e+01 5.6635510290012157e+00 27 -22 -62
121 1 1.1559769926859071e+01 1.3806341702973675e+01 1.8006348356772917e+00 -8 8 -8
313 1 1.3914516298879547e+00 1.9498122967149886e+01 4.2975864880994914e+00 -42 24 39
318 1 7.0844985623440335e+00 2.0289928632731659e+01 5.6136133374762087e+00 34 9 156
384 1 1.6222030058654976e+01 1.7882315459022539e+01 6.0136098715997655e+00 -1 12 3
119 1 1.5950776030531568e+01 1.4961296188244253e+01 2.3999726126417409e+00 41 74 94
436 1 1.1725235335662097e+01 2.4429091424767364e+01 2.5075900525130666e-02 48 65 13
170 1 9.1051434663814614e+00 1.2846952910376753e+01 5.5267434124558248e+00 4 50 -24
437 1 1.8522403874086129e+00 1.3601881541813951e+01 6.4811796349015420e+00 16 -1 -109
457 1 9.6920782123647005e+00 1.8405493437891906e+01 4.1900556402500841e+00 -25 -39 69
16 1 7.0070252938477795e+00 2.4818145397408919e+01 5.3507260660034128e-01 139 89 1
138 1 1.9884462630745539e+01 1.6873242705396212e+01 1.2622031272100347e+00 181 32 13
414 1 2.4029093332583216e+01 2.2755994252653931e+01 3.5304855419354459e+00 103 4 52
267 1 1.8726028159563700e+01 1.4574445418017882e+01 5.2118797517884365e+00 -86 65 -56
241 1 2.0591214212642647e+01 2.3083427003477237e+01 4.9792121513493308e+00 5 -111 -42
184 1 5.0254745265964429e+00 2.0586100477442844e+01 8.9485552808148169e-02 1 4 40
511 1 7.1004394710958278e+00 2.2055524665560924e+01 1.6973473736517557e+00 48 0 103
125 1 1.2847220561880388e+01 2.4399207507043474e+01 4.8429649648900837e+00 -34 -51 -10
200 1 1.5705879534497996e+01 2.3205071249713011e+01 7.4104640684400955e+00 58 87 -17
109 1 2.4382465767285304e+01 2.0140759264575827e+01 7.6583764660104663e+00 -79 -34 -60
74 1 1.6663936126347068e+01 1.9917782564602167e+01 5.3697180389600974e-01 9 54 -1
295 1 1.8597004297965816e+00 1.4162052318194734e+01 9.6849437772257763e-01 -40 -23 -13
464 1 1.3527428195505939e+01 1.6459504557891002e+01 7.4226594268062946e+00 14 23 -19
133 1 1.8927643401087760e+01 1.3625575330814828e+01 7.6307135391925387e+00 -40 78 -47
162 1 1.0415332620646161e+01 2.3245767498163548e+01 5.6702343126667873e+00 -43 8 14
450 1 1.5687950668241907e+01 1.7541388570216384e+01 2.9944187086569993e+00 121 -83 23
12 1 1.4629977935778378e+01 1.3669393834959941e+01 6.0362370864972359e+00 51 -42 70
22 1 2.0465865314036520e+01 1.8396294510886388e+01 7.4749798343773248e+00 2 -61 71
146 1 3.8815820968859205e+00 2.2890061087598585e+01 6.5627970703200642e+00 -12 -15 9
256 1 1.1614580281545805e+01 1.3641840651433762e+01 4.8277163601175088e+00 40 15 -34
23 1 1.3349764905610224e+01 1.9375083012604730e+01 6.5514423543472278e+00 56 38 20
443 1 1.8230851069957012e+01 1.4648536278045524e+01 8.2187747353025264e-01 -115 26 -22
299 1 1.3930640454751154e+01 2.2080384752542660e+01 5.5189012251200262e+00 53 20 66
400 1 1.8236936827436448e+01 2.2616936662392337e+01 6.5613786161503782e+00 55 18 -31
112 1 2.3722109496698565e+01 1.4013520910873817e+01 1.0539159004645258e+00 20 86 -45
64 1 3.7914330744216502e+00 1.7274783746303843e+01 5.1980564157255893e+00 -37 62 25
403 1 6.9419597878389394e-01 1.8957972042841263e+01 5.0050614051157316e-01 -73 50 13
398 1 3.3778981975911631e+00 1.8739772214820359e+01 2.2192650643281904e+00 -56 -19 18
345 1 2.2307042452009664e+01 1.5733973811373222e+01 2.3908978693618410e+00 84 140 -18
277 1 4.4475444108442188e+00 2.0182492690884239e+01 7.9919738353065997e+00 46 2 106
246 1 1.8083883448166674e+01 1.8629249192941270e+01 2.8798841321563939e+00 76 56 95
159 1 1.6527152140921689e+01 1.2819019872455277e+01 4.4060197512401764e+00 -49 51 111
322 1 1.9137555626370414e+01 1.7431730517967701e+01 5.1583819949765548e+00 16 55 -12
338 1 4.9570194695518630e+00 1.4725437956366225e+01 5.3060677871003561e+00 -2 0 32
499 1 1.3983352841789731e+00 1.6957218065919641e+01 5.9714565258749754e+00 33 -31 -63
304 1 7.6808229677473783e+00 1.7859600199196759e+01 2.0148628264772390e+00 -23 -56 116
368 1 9.3868248756381103e+00 1.9542032958549335e+01 6.6361150068353831e+00 38 -27 49
405 1 1.0252412806939668e+01 1.7350079920238198e+01 8.5224703513548905e-01 -19 -1 52
276 1 2.3991979218615871e+01 1.8275645375463771e+01 3.2393174715420976e+00 28 159 -28
134 1 5.8901812406097269e+00 1.8046818664112951e+01 6.8972794489159712e+00 -71 -12 21
188 1 1.2879578629551938e+01 1.6682924703648929e+01 2.0719616008898827e+00 4 3 70
243 1 2.1324427971236663e+01 1.9056574371534797e+01 3.9236691828403307e+00 16 -40 -7
235 1 7.2455478143759606e+00 1.4364720070781837e+01 7.0270664831183600e+00 22 -61 146
73 1 1.6516308639780028e+01 2.3441061840083602e+01 1.0963641675095115e+00 -57 11 13
356 1 2.3711513539175623e+01 1.5672782221282999e+01 5.2762709736756319e+00 -76 10 6
7 1 8.3335793218617020e+00 1.7021431666305439e+01 7.3165525285531166e+00 52 14 51
343 1 2.1213933065189121e+01 2.0233281133071692e+01 1.5791496876814113e+00 -69 12 148
263 1 9.3772350572784458e+00 2.1577988414063498e+01 3.5034307355162539e+00 35 145 -2
314 1 1.3380226412940704e+01 2.0335908401730009e+01 2.1725832223840755e+00 -7 24 -13
391 1 5.6501603707279457e+00 1.3785435993685294e+01 2.7554324696812484e+00 -78 -35 -10
310 1 9.3454826809919656e-01 1.4228540958562736e+01 4.0649411721067841e+00 -6 -5 12
161 1 6.3466625276025450e+00 2.2680428807048791e+01 3.9908483694236416e+00 41 -41 44
290 1 1.4297392066660517e+01 1.3499552747593739e+01 7.2533322309523229e-01 -14 -99 -76
488 1 1.7747374925002443e+01 2.1062939003741128e+01 4.2926092911795779e+00 -26 -14 23
364 1 2.2433582497019085e+01 2.0975750410248310e+01 5.4306927020600018e+00 103 5 -3
139 1 1.5591993332376134e+01 2.1695378761643088e+01 3.2061925448346420e+00 -10 -7 -14
287 1 1.8810115481077607e+00 2.1557939132797731e+01 6.0999219211382538e+00 -16 5 -8
229 1 2.2537994269913848e+00 2.1742831451787282e+01 2.4445951582906540e+00 49 31 15
428 1 1.2487747507083808e+01 1.8534855762688441e+01 3.9102212668971070e+00 68 -16 -7
129 1 2.0763489160841331e+01 2.3437898778174144e+01 1.9454779191697960e+00 -46 -25 -88
325 1 1.1189793269447701e+01 2.2109093251551844e+01 1.2735881538543514e+00 -79 36 27
9 1 5.0217647978942450e+00 1.6321584214611168e+01 1.7990906667986477e+00 -35 36 9
111 1 2.4818953218332624e+01 2.3633539105480594e+01 5.9284733181528697e+00 2 36 86
158 1 8.4609466663160511e+00 1.2950728632988405e+01 2.7897054724781669e+00 -51 59 -95
245 1 2.3394067801184601e+01 2.4747462008710482e+01 1.7701647948820849e+00 -32 5 86
47 1 2.3143263408174995e+01 1.4251107797457081e+01 7.8287870635960140e+00 12 57 -99
387 1 9.8096177894015320e+00 2.1680803405378288e+01 8.2130120937015469e+00 80 -28 125
141 1 1.8316332355496680e+01 1.6576580718425138e+01 8.2778423888374473e+00 84 75 0
78 1 1.9315325856536781e+01 2.2464745188409047e+01 1.6299724525498029e+01 -7 -59 -35
209 1 4.4448681028136683e+00 1.3897540252901965e+01 1.0939084822757243e+01 3 18 -35
352 1 1.6412019041653934e+01 1.7636409103340338e+01 9.9247660679901202e+00 49 -39 -75
452 1 3.5748836999061973e+00 2.1228510237121640e+01 1.0795825618024045e+01 -2 -3 88
148 1 1.1855034199494558e+01 2.1717062214398425e+01 1.6538481001126431e+01 -46 42 61
18 1 1.6327955590836972e+01 1.2722552540769399e+01 8.6344433877786546e+00 51 60 39
57 1 7.0161242664797738e+00 1.5437234441579257e+01 1.5641909712161423e+01 -33 -2 29
309 1 1.7225773829287213e+01 1.6501808722612957e+01 1.3011300176001928e+01 66 60 -44
233 1 1.4917991865398781e+01 1.5191482328752992e+01 1.0144468800916066e+01 0 -22 -40