LAMMPS (4 Jan 2019)
Reading data file ...
  orthogonal box = (0.211342 0.211342 0.211342) to (24.6237 24.6237 24.6237)
  1 by 2 by 3 MPI processor grid
  reading atoms ...
  512 atoms
  reading velocities ...
  512 velocities
Neighbor list info ...
  update every 1 steps, delay 0 steps, check yes
  max neighbors/atom: 2000, page size: 100000
  master list distance cutoff = 6.3065
  ghost atom cutoff = 6.3065
  1 neighbor lists, perpetual/occasional/extra = 1 0 0
  (1) pair sw, perpetual
      attributes: full, newton on
      pair build: full/nsq
      stencil: none
      bin: none
Setting up Verlet run ...
  Unit style    : real
  Current step  : 0
  Time step     : 5
Per MPI rank memory allocation (min/avg/max) = 2.697 | 2.698 | 2.698 Mbytes
---------------- Step        0 ----- CPU =      0.0000 (sec) ----------------
Time     = 0.000000 Temp     = 275.610326 Press    = 15693.672658 
PotEng   = -9.893999 KinEng   = 0.819937 Lx       = 24.412315 
Ly       = 24.412315 Lz       = 24.412315 Density  = 1.052770 
Volume   = 14548.791204 
---------------- Step    10000 ----- CPU =      6.4058 (sec) ----------------
Time     = 50000.000000 Temp     = 253.692268 Press    = -383.760316 
PotEng   = -10.314102 KinEng   = 0.754731 Lx       = 24.804925 
Ly       = 24.804925 Lz       = 24.804925 Density  = 1.003568 
Volume   = 15262.080529 
---------------- Step    20000 ----- CPU =     12.8474 (sec) ----------------
Time     = 100000.000000 Temp     = 249.610747 Press    = 646.061230 
PotEng   = -10.287960 KinEng   = 0.742589 Lx       = 24.773523 
Ly       = 24.773523 Lz       = 24.773523 Density  = 1.007389 
Volume   = 15204.191379 
---------------- Step    30000 ----- CPU =     19.2410 (sec) ----------------
Time     = 150000.000000 Temp     = 267.309768 Press    = -617.307321 
PotEng   = -10.333655 KinEng   = 0.795243 Lx       = 24.820091 
Ly       = 24.820091 Lz       = 24.820091 Density  = 1.001729 
Volume   = 15290.091849 
---------------- Step    40000 ----- CPU =     25.6890 (sec) ----------------
Time     = 200000.000000 Temp     = 250.985232 Press    = 322.299405 
PotEng   = -10.325976 KinEng   = 0.746678 Lx       = 24.778725 
Ly       = 24.778725 Lz       = 24.778725 Density  = 1.006755 
Volume   = 15213.770159 
---------------- Step    50000 ----- CPU =     32.1268 (sec) ----------------
Time     = 250000.000000 Temp     = 254.602008 Press    = 579.804639 
PotEng   = -10.288930 KinEng   = 0.757438 Lx       = 24.764961 
Ly       = 24.764961 Lz       = 24.764961 Density  = 1.008434 
Volume   = 15188.431823 
---------------- Step    60000 ----- CPU =     38.5421 (sec) ----------------
Time     = 300000.000000 Temp     = 257.499013 Press    = -1470.638167 
PotEng   = -10.294497 KinEng   = 0.766057 Lx       = 24.953593 
Ly       = 24.953593 Lz       = 24.953593 Density  = 0.985737 
Volume   = 15538.148996 
---------------- Step    70000 ----- CPU =     44.9311 (sec) ----------------
Time     = 350000.000000 Temp     = 253.200112 Press    = -872.995084 
PotEng   = -10.280817 KinEng   = 0.753267 Lx       = 24.775424 
Ly       = 24.775424 Lz       = 24.775424 Density  = 1.007157 
Volume   = 15207.691226 
---------------- Step    80000 ----- CPU =     51.2346 (sec) ----------------
Time     = 400000.000000 Temp     = 254.387894 Press    = -1275.123661 
PotEng   = -10.282035 KinEng   = 0.756801 Lx       = 24.793322 
Ly       = 24.793322 Lz       = 24.793322 Density  = 1.004978 
Volume   = 15240.673277 
---------------- Step    90000 ----- CPU =     57.6633 (sec) ----------------
Time     = 450000.000000 Temp     = 265.947961 Press    = 269.948357 
PotEng   = -10.285760 KinEng   = 0.791192 Lx       = 24.715691 
Ly       = 24.715691 Lz       = 24.715691 Density  = 1.014477 
Volume   = 15097.959440 
---------------- Step   100000 ----- CPU =     64.0913 (sec) ----------------
Time     = 500000.000000 Temp     = 258.396859 Press    = -248.001332 
PotEng   = -10.273712 KinEng   = 0.768728 Lx       = 24.928795 
Ly       = 24.928795 Lz       = 24.928795 Density  = 0.988682 
Volume   = 15491.871232 
---------------- Step   110000 ----- CPU =     70.5014 (sec) ----------------
Time     = 550000.000000 Temp     = 258.311130 Press    = 1220.106699 
PotEng   = -10.227179 KinEng   = 0.768473 Lx       = 24.638823 
Ly       = 24.638823 Lz       = 24.638823 Density  = 1.024002 
Volume   = 14957.530285 
---------------- Step   120000 ----- CPU =     76.8578 (sec) ----------------
Time     = 600000.000000 Temp     = 249.218224 Press    = -320.825936 
PotEng   = -10.317921 KinEng   = 0.741421 Lx       = 24.855094 
Ly       = 24.855094 Lz       = 24.855094 Density  = 0.997503 
Volume   = 15354.873934 
---------------- Step   130000 ----- CPU =     83.2651 (sec) ----------------
Time     = 650000.000000 Temp     = 248.765341 Press    = 1332.326482 
PotEng   = -10.263010 KinEng   = 0.740074 Lx       = 24.724477 
Ly       = 24.724477 Lz       = 24.724477 Density  = 1.013396 
Volume   = 15114.067288 
---------------- Step   140000 ----- CPU =     89.6353 (sec) ----------------
Time     = 700000.000000 Temp     = 253.432423 Press    = 14.624639 
PotEng   = -10.293352 KinEng   = 0.753958 Lx       = 24.878070 
Ly       = 24.878070 Lz       = 24.878070 Density  = 0.994742 
Volume   = 15397.494141 
---------------- Step   150000 ----- CPU =     95.9794 (sec) ----------------
Time     = 750000.000000 Temp     = 270.385995 Press    = 801.336678 
PotEng   = -10.337121 KinEng   = 0.804395 Lx       = 24.763950 
Ly       = 24.763950 Lz       = 24.763950 Density  = 1.008558 
Volume   = 15186.572306 
---------------- Step   160000 ----- CPU =    102.3937 (sec) ----------------
Time     = 800000.000000 Temp     = 249.677969 Press    = 689.203375 
PotEng   = -10.347154 KinEng   = 0.742789 Lx       = 24.788954 
Ly       = 24.788954 Lz       = 24.788954 Density  = 1.005509 
Volume   = 15232.620455 
---------------- Step   170000 ----- CPU =    108.8030 (sec) ----------------
Time     = 850000.000000 Temp     = 258.909247 Press    = -397.287732 
PotEng   = -10.247617 KinEng   = 0.770252 Lx       = 24.802024 
Ly       = 24.802024 Lz       = 24.802024 Density  = 1.003920 
Volume   = 15256.726879 
---------------- Step   180000 ----- CPU =    115.2023 (sec) ----------------
Time     = 900000.000000 Temp     = 260.372767 Press    = -1067.721117 
PotEng   = -10.223349 KinEng   = 0.774606 Lx       = 24.879766 
Ly       = 24.879766 Lz       = 24.879766 Density  = 0.994539 
Volume   = 15400.643144 
---------------- Step   190000 ----- CPU =    121.5796 (sec) ----------------
Time     = 950000.000000 Temp     = 265.678985 Press    = -262.648527 
PotEng   = -10.314883 KinEng   = 0.790392 Lx       = 24.797217 
Ly       = 24.797217 Lz       = 24.797217 Density  = 1.004504 
Volume   = 15247.857740 
---------------- Step   200000 ----- CPU =    128.0555 (sec) ----------------
Time     = 1000000.000000 Temp     = 268.368750 Press    = 1227.681956 
PotEng   = -10.260558 KinEng   = 0.798394 Lx       = 24.728417 
Ly       = 24.728417 Lz       = 24.728417 Density  = 1.012912 
Volume   = 15121.294015 
---------------- Step   210000 ----- CPU =    134.4125 (sec) ----------------
Time     = 1050000.000000 Temp     = 249.017466 Press    = -448.624778 
PotEng   = -10.335179 KinEng   = 0.740824 Lx       = 24.815422 
Ly       = 24.815422 Lz       = 24.815422 Density  = 1.002295 
Volume   = 15281.465606 
---------------- Step   220000 ----- CPU =    140.7867 (sec) ----------------
Time     = 1100000.000000 Temp     = 270.479120 Press    = 1015.957633 
PotEng   = -10.251079 KinEng   = 0.804672 Lx       = 24.776291 
Ly       = 24.776291 Lz       = 24.776291 Density  = 1.007051 
Volume   = 15209.288153 
---------------- Step   230000 ----- CPU =    147.1653 (sec) ----------------
Time     = 1150000.000000 Temp     = 258.181306 Press    = 494.919870 
PotEng   = -10.306072 KinEng   = 0.768086 Lx       = 24.854458 
Ly       = 24.854458 Lz       = 24.854458 Density  = 0.997580 
Volume   = 15353.695142 
---------------- Step   240000 ----- CPU =    153.5795 (sec) ----------------
Time     = 1200000.000000 Temp     = 257.413538 Press    = 441.304946 
PotEng   = -10.340571 KinEng   = 0.765802 Lx       = 24.899447 
Ly       = 24.899447 Lz       = 24.899447 Density  = 0.992182 
Volume   = 15437.220314 
---------------- Step   250000 ----- CPU =    159.9442 (sec) ----------------
Time     = 1250000.000000 Temp     = 265.845021 Press    = -140.502731 
PotEng   = -10.227109 KinEng   = 0.790886 Lx       = 24.853899 
Ly       = 24.853899 Lz       = 24.853899 Density  = 0.997647 
Volume   = 15352.657971 
---------------- Step   260000 ----- CPU =    166.3927 (sec) ----------------
Time     = 1300000.000000 Temp     = 263.559261 Press    = -173.438500 
PotEng   = -10.246267 KinEng   = 0.784086 Lx       = 24.787386 
Ly       = 24.787386 Lz       = 24.787386 Density  = 1.005700 
Volume   = 15229.728580 
---------------- Step   270000 ----- CPU =    172.7475 (sec) ----------------
Time     = 1350000.000000 Temp     = 252.655908 Press    = 100.172971 
PotEng   = -10.255170 KinEng   = 0.751648 Lx       = 24.797139 
Ly       = 24.797139 Lz       = 24.797139 Density  = 1.004514 
Volume   = 15247.713643 
---------------- Step   280000 ----- CPU =    179.1279 (sec) ----------------
Time     = 1400000.000000 Temp     = 257.649548 Press    = -74.834602 
PotEng   = -10.244311 KinEng   = 0.766504 Lx       = 24.772821 
Ly       = 24.772821 Lz       = 24.772821 Density  = 1.007475 
Volume   = 15202.897903 
---------------- Step   290000 ----- CPU =    185.4922 (sec) ----------------
Time     = 1450000.000000 Temp     = 283.372084 Press    = -49.929626 
PotEng   = -10.352147 KinEng   = 0.843029 Lx       = 24.857853 
Ly       = 24.857853 Lz       = 24.857853 Density  = 0.997171 
Volume   = 15359.986296 
---------------- Step   300000 ----- CPU =    191.8918 (sec) ----------------
Time     = 1500000.000000 Temp     = 255.325001 Press    = -697.059136 
PotEng   = -10.286125 KinEng   = 0.759589 Lx       = 24.826647 
Ly       = 24.826647 Lz       = 24.826647 Density  = 1.000936 
Volume   = 15302.212390 
---------------- Step   310000 ----- CPU =    198.2619 (sec) ----------------
Time     = 1550000.000000 Temp     = 260.098953 Press    = -360.415995 
PotEng   = -10.295302 KinEng   = 0.773791 Lx       = 24.825431 
Ly       = 24.825431 Lz       = 24.825431 Density  = 1.001083 
Volume   = 15299.963119 
---------------- Step   320000 ----- CPU =    204.5995 (sec) ----------------
Time     = 1600000.000000 Temp     = 273.026953 Press    = 594.983441 
PotEng   = -10.320609 KinEng   = 0.812252 Lx       = 24.782055 
Ly       = 24.782055 Lz       = 24.782055 Density  = 1.006349 
Volume   = 15219.905087 
---------------- Step   330000 ----- CPU =    211.0110 (sec) ----------------
Time     = 1650000.000000 Temp     = 266.508221 Press    = 475.331539 
PotEng   = -10.329459 KinEng   = 0.792859 Lx       = 24.809844 
Ly       = 24.809844 Lz       = 24.809844 Density  = 1.002971 
Volume   = 15271.162250 
---------------- Step   340000 ----- CPU =    217.3831 (sec) ----------------
Time     = 1700000.000000 Temp     = 272.898138 Press    = 288.099542 
PotEng   = -10.252151 KinEng   = 0.811869 Lx       = 24.840166 
Ly       = 24.840166 Lz       = 24.840166 Density  = 0.999303 
Volume   = 15327.222722 
---------------- Step   350000 ----- CPU =    223.8242 (sec) ----------------
Time     = 1750000.000000 Temp     = 247.143282 Press    = -1698.371350 
PotEng   = -10.303289 KinEng   = 0.735248 Lx       = 24.856768 
Ly       = 24.856768 Lz       = 24.856768 Density  = 0.997302 
Volume   = 15357.976316 
---------------- Step   360000 ----- CPU =    230.2159 (sec) ----------------
Time     = 1800000.000000 Temp     = 255.287250 Press    = 226.889489 
PotEng   = -10.289187 KinEng   = 0.759477 Lx       = 24.850950 
Ly       = 24.850950 Lz       = 24.850950 Density  = 0.998002 
Volume   = 15347.193833 
---------------- Step   370000 ----- CPU =    236.6215 (sec) ----------------
Time     = 1850000.000000 Temp     = 275.728185 Press    = 310.288262 
PotEng   = -10.350521 KinEng   = 0.820288 Lx       = 24.773057 
Ly       = 24.773057 Lz       = 24.773057 Density  = 1.007446 
Volume   = 15203.333106 
---------------- Step   380000 ----- CPU =    243.0217 (sec) ----------------
Time     = 1900000.000000 Temp     = 257.959806 Press    = 640.216793 
PotEng   = -10.334122 KinEng   = 0.767427 Lx       = 24.781692 
Ly       = 24.781692 Lz       = 24.781692 Density  = 1.006393 
Volume   = 15219.236585 
---------------- Step   390000 ----- CPU =    249.4592 (sec) ----------------
Time     = 1950000.000000 Temp     = 270.900860 Press    = 168.016500 
PotEng   = -10.270185 KinEng   = 0.805927 Lx       = 24.819008 
Ly       = 24.819008 Lz       = 24.819008 Density  = 1.001861 
Volume   = 15288.090149 
---------------- Step   400000 ----- CPU =    255.8385 (sec) ----------------
Time     = 2000000.000000 Temp     = 254.845605 Press    = -89.272733 
PotEng   = -10.286420 KinEng   = 0.758163 Lx       = 24.806002 
Ly       = 24.806002 Lz       = 24.806002 Density  = 1.003437 
Volume   = 15264.068650 
---------------- Step   410000 ----- CPU =    262.3137 (sec) ----------------
Time     = 2050000.000000 Temp     = 238.607041 Press    = 562.226501 
PotEng   = -10.246570 KinEng   = 0.709853 Lx       = 24.775565 
Ly       = 24.775565 Lz       = 24.775565 Density  = 1.007140 
Volume   = 15207.950978 
---------------- Step   420000 ----- CPU =    268.7381 (sec) ----------------
Time     = 2100000.000000 Temp     = 257.530483 Press    = 294.611388 
PotEng   = -10.284323 KinEng   = 0.766150 Lx       = 24.804123 
Ly       = 24.804123 Lz       = 24.804123 Density  = 1.003665 
Volume   = 15260.600805 
---------------- Step   430000 ----- CPU =    275.1356 (sec) ----------------
Time     = 2150000.000000 Temp     = 275.951799 Press    = -820.808624 
PotEng   = -10.297044 KinEng   = 0.820953 Lx       = 24.898529 
Ly       = 24.898529 Lz       = 24.898529 Density  = 0.992292 
Volume   = 15435.512210 
---------------- Step   440000 ----- CPU =    281.4533 (sec) ----------------
Time     = 2200000.000000 Temp     = 257.750276 Press    = 78.533623 
PotEng   = -10.270978 KinEng   = 0.766804 Lx       = 24.835167 
Ly       = 24.835167 Lz       = 24.835167 Density  = 0.999906 
Volume   = 15317.971054 
---------------- Step   450000 ----- CPU =    287.7819 (sec) ----------------
Time     = 2250000.000000 Temp     = 272.618286 Press    = 606.046868 
PotEng   = -10.222774 KinEng   = 0.811036 Lx       = 24.810524 
Ly       = 24.810524 Lz       = 24.810524 Density  = 1.002889 
Volume   = 15272.418756 
---------------- Step   460000 ----- CPU =    294.1430 (sec) ----------------
Time     = 2300000.000000 Temp     = 252.752243 Press    = 500.662094 
PotEng   = -10.309843 KinEng   = 0.751935 Lx       = 24.810609 
Ly       = 24.810609 Lz       = 24.810609 Density  = 1.002878 
Volume   = 15272.576162 
---------------- Step   470000 ----- CPU =    300.5402 (sec) ----------------
Time     = 2350000.000000 Temp     = 263.866894 Press    = -270.002991 
PotEng   = -10.230820 KinEng   = 0.785001 Lx       = 24.875955 
Ly       = 24.875955 Lz       = 24.875955 Density  = 0.994996 
Volume   = 15393.568484 
---------------- Step   480000 ----- CPU =    306.9142 (sec) ----------------
Time     = 2400000.000000 Temp     = 243.545228 Press    = -71.238175 
PotEng   = -10.196775 KinEng   = 0.724544 Lx       = 24.784187 
Ly       = 24.784187 Lz       = 24.784187 Density  = 1.006089 
Volume   = 15223.833890 
---------------- Step   490000 ----- CPU =    313.3178 (sec) ----------------
Time     = 2450000.000000 Temp     = 239.703948 Press    = -421.051709 
PotEng   = -10.234003 KinEng   = 0.713116 Lx       = 24.915880 
Ly       = 24.915880 Lz       = 24.915880 Density  = 0.990220 
Volume   = 15467.806018 
---------------- Step   500000 ----- CPU =    319.7414 (sec) ----------------
Time     = 2500000.000000 Temp     = 247.843465 Press    = -284.848474 
PotEng   = -10.194568 KinEng   = 0.737331 Lx       = 24.695791 
Ly       = 24.695791 Lz       = 24.695791 Density  = 1.016931 
Volume   = 15061.521370 
---------------- Step   510000 ----- CPU =    326.1483 (sec) ----------------
Time     = 2550000.000000 Temp     = 247.798018 Press    = -185.719111 
PotEng   = -10.284634 KinEng   = 0.737196 Lx       = 24.830797 
Ly       = 24.830797 Lz       = 24.830797 Density  = 1.000434 
Volume   = 15309.887480 
---------------- Step   520000 ----- CPU =    332.5370 (sec) ----------------
Time     = 2600000.000000 Temp     = 274.439490 Press    = -576.550649 
PotEng   = -10.205222 KinEng   = 0.816454 Lx       = 24.794737 
Ly       = 24.794737 Lz       = 24.794737 Density  = 1.004806 
Volume   = 15243.282341 
---------------- Step   530000 ----- CPU =    338.9477 (sec) ----------------
Time     = 2650000.000000 Temp     = 256.361609 Press    = -217.141158 
PotEng   = -10.303849 KinEng   = 0.762673 Lx       = 24.784634 
Ly       = 24.784634 Lz       = 24.784634 Density  = 1.006035 
Volume   = 15224.657727 
---------------- Step   540000 ----- CPU =    345.3424 (sec) ----------------
Time     = 2700000.000000 Temp     = 250.200802 Press    = 261.606076 
PotEng   = -10.276200 KinEng   = 0.744344 Lx       = 24.770639 
Ly       = 24.770639 Lz       = 24.770639 Density  = 1.007741 
Volume   = 15198.880868 
---------------- Step   550000 ----- CPU =    351.7244 (sec) ----------------
Time     = 2750000.000000 Temp     = 268.467165 Press    = -246.253250 
PotEng   = -10.244545 KinEng   = 0.798687 Lx       = 24.846045 
Ly       = 24.846045 Lz       = 24.846045 Density  = 0.998593 
Volume   = 15338.108560 
---------------- Step   560000 ----- CPU =    358.0872 (sec) ----------------
Time     = 2800000.000000 Temp     = 282.190759 Press    = 159.065657 
PotEng   = -10.238617 KinEng   = 0.839514 Lx       = 24.736919 
Ly       = 24.736919 Lz       = 24.736919 Density  = 1.011868 
Volume   = 15136.894952 
---------------- Step   570000 ----- CPU =    364.4647 (sec) ----------------
Time     = 2850000.000000 Temp     = 251.012653 Press    = -716.159966 
PotEng   = -10.200674 KinEng   = 0.746760 Lx       = 24.867197 
Ly       = 24.867197 Lz       = 24.867197 Density  = 0.996047 
Volume   = 15377.315486 
---------------- Step   580000 ----- CPU =    370.8760 (sec) ----------------
Time     = 2900000.000000 Temp     = 271.202954 Press    = 572.825353 
PotEng   = -10.334141 KinEng   = 0.806826 Lx       = 24.783629 
Ly       = 24.783629 Lz       = 24.783629 Density  = 1.006157 
Volume   = 15222.806277 
---------------- Step   590000 ----- CPU =    377.2349 (sec) ----------------
Time     = 2950000.000000 Temp     = 261.566795 Press    = -286.455381 
PotEng   = -10.265846 KinEng   = 0.778158 Lx       = 24.860488 
Ly       = 24.860488 Lz       = 24.860488 Density  = 0.996854 
Volume   = 15364.871599 
---------------- Step   600000 ----- CPU =    383.6064 (sec) ----------------
Time     = 3000000.000000 Temp     = 260.969641 Press    = -490.968242 
PotEng   = -10.221955 KinEng   = 0.776382 Lx       = 24.772599 
Ly       = 24.772599 Lz       = 24.772599 Density  = 1.007502 
Volume   = 15202.488989 
---------------- Step   610000 ----- CPU =    390.0534 (sec) ----------------
Time     = 3050000.000000 Temp     = 243.411807 Press    = 484.606580 
PotEng   = -10.264097 KinEng   = 0.724147 Lx       = 24.787212 
Ly       = 24.787212 Lz       = 24.787212 Density  = 1.005721 
Volume   = 15229.409617 
---------------- Step   620000 ----- CPU =    396.5044 (sec) ----------------
Time     = 3100000.000000 Temp     = 255.608604 Press    = 274.959112 
PotEng   = -10.184822 KinEng   = 0.760433 Lx       = 24.874979 
Ly       = 24.874979 Lz       = 24.874979 Density  = 0.995113 
Volume   = 15391.755014 
---------------- Step   630000 ----- CPU =    402.8653 (sec) ----------------
Time     = 3150000.000000 Temp     = 274.278560 Press    = 1118.294986 
PotEng   = -10.258687 KinEng   = 0.815975 Lx       = 24.746697 
Ly       = 24.746697 Lz       = 24.746697 Density  = 1.010669 
Volume   = 15154.852193 
---------------- Step   640000 ----- CPU =    409.3100 (sec) ----------------
Time     = 3200000.000000 Temp     = 261.076863 Press    = 91.202579 
PotEng   = -10.287938 KinEng   = 0.776701 Lx       = 24.858970 
Ly       = 24.858970 Lz       = 24.858970 Density  = 0.997037 
Volume   = 15362.057726 
---------------- Step   650000 ----- CPU =    415.7201 (sec) ----------------
Time     = 3250000.000000 Temp     = 256.991711 Press    = -57.597157 
PotEng   = -10.346906 KinEng   = 0.764547 Lx       = 24.860271 
Ly       = 24.860271 Lz       = 24.860271 Density  = 0.996880 
Volume   = 15364.470243 
---------------- Step   660000 ----- CPU =    422.0635 (sec) ----------------
Time     = 3300000.000000 Temp     = 265.878913 Press    = 666.069432 
PotEng   = -10.277328 KinEng   = 0.790987 Lx       = 24.806302 
Ly       = 24.806302 Lz       = 24.806302 Density  = 1.003401 
Volume   = 15264.622060 
---------------- Step   670000 ----- CPU =    428.4935 (sec) ----------------
Time     = 3350000.000000 Temp     = 266.257933 Press    = -315.493795 
PotEng   = -10.237406 KinEng   = 0.792114 Lx       = 24.877603 
Ly       = 24.877603 Lz       = 24.877603 Density  = 0.994798 
Volume   = 15396.626919 
---------------- Step   680000 ----- CPU =    434.8744 (sec) ----------------
Time     = 3400000.000000 Temp     = 264.744508 Press    = 527.355812 
PotEng   = -10.291519 KinEng   = 0.787612 Lx       = 24.669565 
Ly       = 24.669565 Lz       = 24.669565 Density  = 1.020178 
Volume   = 15013.588202 
---------------- Step   690000 ----- CPU =    441.2581 (sec) ----------------
Time     = 3450000.000000 Temp     = 260.612046 Press    = -203.225680 
PotEng   = -10.293419 KinEng   = 0.775318 Lx       = 24.840484 
Ly       = 24.840484 Lz       = 24.840484 Density  = 0.999264 
Volume   = 15327.812009 
---------------- Step   700000 ----- CPU =    447.6521 (sec) ----------------
Time     = 3500000.000000 Temp     = 281.408657 Press    = -196.127603 
PotEng   = -10.268641 KinEng   = 0.837187 Lx       = 24.798346 
Ly       = 24.798346 Lz       = 24.798346 Density  = 1.004367 
Volume   = 15249.939677 
---------------- Step   710000 ----- CPU =    454.1313 (sec) ----------------
Time     = 3550000.000000 Temp     = 259.689517 Press    = -79.043144 
PotEng   = -10.326481 KinEng   = 0.772573 Lx       = 24.792305 
Ly       = 24.792305 Lz       = 24.792305 Density  = 1.005101 
Volume   = 15238.797364 
---------------- Step   720000 ----- CPU =    460.5503 (sec) ----------------
Time     = 3600000.000000 Temp     = 268.940550 Press    = 252.309170 
PotEng   = -10.250756 KinEng   = 0.800095 Lx       = 24.760613 
Ly       = 24.760613 Lz       = 24.760613 Density  = 1.008966 
Volume   = 15180.433033 
---------------- Step   730000 ----- CPU =    466.9831 (sec) ----------------
Time     = 3650000.000000 Temp     = 257.419424 Press    = 796.378590 
PotEng   = -10.252665 KinEng   = 0.765820 Lx       = 24.753555 
Ly       = 24.753555 Lz       = 24.753555 Density  = 1.009829 
Volume   = 15167.456457 
---------------- Step   740000 ----- CPU =    473.2979 (sec) ----------------
Time     = 3700000.000000 Temp     = 273.607076 Press    = -1105.789123 
PotEng   = -10.260993 KinEng   = 0.813978 Lx       = 24.842114 
Ly       = 24.842114 Lz       = 24.842114 Density  = 0.999068 
Volume   = 15330.829416 
---------------- Step   750000 ----- CPU =    479.6748 (sec) ----------------
Time     = 3750000.000000 Temp     = 270.986180 Press    = 1205.390155 
PotEng   = -10.323366 KinEng   = 0.806181 Lx       = 24.751169 
Ly       = 24.751169 Lz       = 24.751169 Density  = 1.010121 
Volume   = 15163.069427 
---------------- Step   760000 ----- CPU =    486.0999 (sec) ----------------
Time     = 3800000.000000 Temp     = 267.455264 Press    = 718.883161 
PotEng   = -10.296809 KinEng   = 0.795676 Lx       = 24.768041 
Ly       = 24.768041 Lz       = 24.768041 Density  = 1.008058 
Volume   = 15194.099297 
---------------- Step   770000 ----- CPU =    492.5131 (sec) ----------------
Time     = 3850000.000000 Temp     = 261.562209 Press    = 1370.671715 
PotEng   = -10.229612 KinEng   = 0.778144 Lx       = 24.783102 
Ly       = 24.783102 Lz       = 24.783102 Density  = 1.006221 
Volume   = 15221.834650 
---------------- Step   780000 ----- CPU =    498.9098 (sec) ----------------
Time     = 3900000.000000 Temp     = 262.273157 Press    = 1325.152152 
PotEng   = -10.352560 KinEng   = 0.780260 Lx       = 24.651907 
Ly       = 24.651907 Lz       = 24.651907 Density  = 1.022372 
Volume   = 14981.371129 
---------------- Step   790000 ----- CPU =    505.3094 (sec) ----------------
Time     = 3950000.000000 Temp     = 252.770053 Press    = -273.168350 
PotEng   = -10.263900 KinEng   = 0.751988 Lx       = 24.776643 
Ly       = 24.776643 Lz       = 24.776643 Density  = 1.007009 
Volume   = 15209.935498 
---------------- Step   800000 ----- CPU =    511.7304 (sec) ----------------
Time     = 4000000.000000 Temp     = 277.006046 Press    = 73.776261 
PotEng   = -10.276166 KinEng   = 0.824090 Lx       = 24.769743 
Ly       = 24.769743 Lz       = 24.769743 Density  = 1.007850 
Volume   = 15197.233041 
---------------- Step   810000 ----- CPU =    518.1215 (sec) ----------------
Time     = 4050000.000000 Temp     = 252.889851 Press    = 51.897849 
PotEng   = -10.279679 KinEng   = 0.752344 Lx       = 24.745767 
Ly       = 24.745767 Lz       = 24.745767 Density  = 1.010783 
Volume   = 15153.143738 
---------------- Step   820000 ----- CPU =    524.5185 (sec) ----------------
Time     = 4100000.000000 Temp     = 240.949826 Press    = 295.486426 
PotEng   = -10.349920 KinEng   = 0.716823 Lx       = 24.828840 
Ly       = 24.828840 Lz       = 24.828840 Density  = 1.000671 
Volume   = 15306.267014 
---------------- Step   830000 ----- CPU =    530.8783 (sec) ----------------
Time     = 4150000.000000 Temp     = 252.908965 Press    = 640.469388 
PotEng   = -10.339709 KinEng   = 0.752401 Lx       = 24.785650 
Ly       = 24.785650 Lz       = 24.785650 Density  = 1.005911 
Volume   = 15226.530014 
---------------- Step   840000 ----- CPU =    537.2811 (sec) ----------------
Time     = 4200000.000000 Temp     = 255.201378 Press    = -219.157031 
PotEng   = -10.284131 KinEng   = 0.759221 Lx       = 24.822014 
Ly       = 24.822014 Lz       = 24.822014 Density  = 1.001497 
Volume   = 15293.646732 
---------------- Step   850000 ----- CPU =    543.6710 (sec) ----------------
Time     = 4250000.000000 Temp     = 248.344126 Press    = -42.589090 
PotEng   = -10.306035 KinEng   = 0.738821 Lx       = 24.780247 
Ly       = 24.780247 Lz       = 24.780247 Density  = 1.006569 
Volume   = 15216.574732 
---------------- Step   860000 ----- CPU =    549.9979 (sec) ----------------
Time     = 4300000.000000 Temp     = 255.565572 Press    = 606.162427 
PotEng   = -10.273827 KinEng   = 0.760305 Lx       = 24.781630 
Ly       = 24.781630 Lz       = 24.781630 Density  = 1.006401 
Volume   = 15219.122139 
---------------- Step   870000 ----- CPU =    556.4334 (sec) ----------------
Time     = 4350000.000000 Temp     = 272.824122 Press    = 88.999142 
PotEng   = -10.352936 KinEng   = 0.811649 Lx       = 24.828510 
Ly       = 24.828510 Lz       = 24.828510 Density  = 1.000711 
Volume   = 15305.656786 
---------------- Step   880000 ----- CPU =    562.7358 (sec) ----------------
Time     = 4400000.000000 Temp     = 252.206839 Press    = 744.275596 
PotEng   = -10.363442 KinEng   = 0.750312 Lx       = 24.742779 
Ly       = 24.742779 Lz       = 24.742779 Density  = 1.011149 
Volume   = 15147.656188 
---------------- Step   890000 ----- CPU =    569.1479 (sec) ----------------
Time     = 4450000.000000 Temp     = 260.361159 Press    = -1448.351765 
PotEng   = -10.284616 KinEng   = 0.774571 Lx       = 24.788963 
Ly       = 24.788963 Lz       = 24.788963 Density  = 1.005508 
Volume   = 15232.635881 
---------------- Step   900000 ----- CPU =    575.5589 (sec) ----------------
Time     = 4500000.000000 Temp     = 246.844586 Press    = -479.962894 
PotEng   = -10.245132 KinEng   = 0.734360 Lx       = 24.791784 
Ly       = 24.791784 Lz       = 24.791784 Density  = 1.005165 
Volume   = 15237.837947 
---------------- Step   910000 ----- CPU =    581.9524 (sec) ----------------
Time     = 4550000.000000 Temp     = 267.527818 Press    = -673.860589 
PotEng   = -10.288104 KinEng   = 0.795892 Lx       = 24.871583 
Ly       = 24.871583 Lz       = 24.871583 Density  = 0.995521 
Volume   = 15385.452998 
---------------- Step   920000 ----- CPU =    588.3466 (sec) ----------------
Time     = 4600000.000000 Temp     = 257.183007 Press    = -154.686259 
PotEng   = -10.247740 KinEng   = 0.765116 Lx       = 24.799109 
Ly       = 24.799109 Lz       = 24.799109 Density  = 1.004274 
Volume   = 15251.347154 
---------------- Step   930000 ----- CPU =    594.7694 (sec) ----------------
Time     = 4650000.000000 Temp     = 264.786827 Press    = 109.897616 
PotEng   = -10.335042 KinEng   = 0.787738 Lx       = 24.882571 
Ly       = 24.882571 Lz       = 24.882571 Density  = 0.994202 
Volume   = 15405.852511 
---------------- Step   940000 ----- CPU =    601.1897 (sec) ----------------
Time     = 4700000.000000 Temp     = 257.441654 Press    = -450.314673 
PotEng   = -10.249817 KinEng   = 0.765886 Lx       = 24.859340 
Ly       = 24.859340 Lz       = 24.859340 Density  = 0.996992 
Volume   = 15362.743487 
---------------- Step   950000 ----- CPU =    607.5896 (sec) ----------------
Time     = 4750000.000000 Temp     = 250.831968 Press    = -570.095574 
PotEng   = -10.307349 KinEng   = 0.746222 Lx       = 24.820085 
Ly       = 24.820085 Lz       = 24.820085 Density  = 1.001730 
Volume   = 15290.081555 
---------------- Step   960000 ----- CPU =    613.9881 (sec) ----------------
Time     = 4800000.000000 Temp     = 264.226213 Press    = -344.176329 
PotEng   = -10.240241 KinEng   = 0.786070 Lx       = 24.848193 
Ly       = 24.848193 Lz       = 24.848193 Density  = 0.998334 
Volume   = 15342.086983 
---------------- Step   970000 ----- CPU =    620.4547 (sec) ----------------
Time     = 4850000.000000 Temp     = 267.811869 Press    = 1253.665106 
PotEng   = -10.310929 KinEng   = 0.796737 Lx       = 24.815608 
Ly       = 24.815608 Lz       = 24.815608 Density  = 1.002272 
Volume   = 15281.807852 
---------------- Step   980000 ----- CPU =    626.8485 (sec) ----------------
Time     = 4900000.000000 Temp     = 256.925439 Press    = -1188.674753 
PotEng   = -10.302767 KinEng   = 0.764350 Lx       = 24.841407 
Ly       = 24.841407 Lz       = 24.841407 Density  = 0.999153 
Volume   = 15329.521270 
---------------- Step   990000 ----- CPU =    633.2284 (sec) ----------------
Time     = 4950000.000000 Temp     = 253.267641 Press    = -921.939604 
PotEng   = -10.286003 KinEng   = 0.753468 Lx       = 24.844854 
Ly       = 24.844854 Lz       = 24.844854 Density  = 0.998737 
Volume   = 15335.903325 
---------------- Step  1000000 ----- CPU =    639.6167 (sec) ----------------
Time     = 5000000.000000 Temp     = 268.271074 Press    = -316.252922 
PotEng   = -10.286093 KinEng   = 0.798103 Lx       = 24.945381 
Ly       = 24.945381 Lz       = 24.945381 Density  = 0.986711 
Volume   = 15522.812205 
Loop time of 639.617 on 6 procs for 1000000 steps with 512 atoms

Performance: 675.404 ns/day, 0.036 hours/ns, 1563.436 timesteps/s
97.0% CPU use with 6 MPI tasks x no OpenMP threads

MPI task timing breakdown:
Section |  min time  |  avg time  |  max time  |%varavg| %total
---------------------------------------------------------------
Pair    | 535.88     | 539.42     | 544.66     |  12.2 | 84.33
Neigh   | 15.082     | 15.125     | 15.241     |   1.4 |  2.36
Comm    | 66.024     | 71.213     | 74.621     |  32.6 | 11.13
Output  | 0.0025055  | 0.0046059  | 0.01506    |   6.9 |  0.00
Modify  | 11.162     | 11.364     | 11.541     |   3.6 |  1.78
Other   |            | 2.494      |            |       |  0.39

Nlocal:    85.3333 ave 88 max 83 min
Histogram: 2 0 0 0 2 0 0 0 0 2
Nghost:    568.667 ave 577 max 557 min
Histogram: 1 0 0 1 0 0 2 0 0 2
Neighs:    0 ave 0 max 0 min
Histogram: 6 0 0 0 0 0 0 0 0 0
FullNghs:  2822.33 ave 2982 max 2640 min
Histogram: 1 0 1 0 1 0 1 0 1 1

Total # of neighbors = 16934
Ave neighs/atom = 33.0742
Neighbor list builds = 60075
Dangerous builds = 0
Setting up Verlet run ...
  Unit style    : real
  Current step  : 1000000
  Time step     : 5
Per MPI rank memory allocation (min/avg/max) = 2.946 | 2.946 | 2.947 Mbytes
---------------- Step  1000000 ----- CPU =      0.0000 (sec) ----------------
Time     = 5000000.000000 Temp     = 268.271074 Press    = -316.252922 
PotEng   = -10.286093 KinEng   = 0.798103 Lx       = 24.945381 
Ly       = 24.945381 Lz       = 24.945381 Density  = 0.986711 
Volume   = 15522.812205 
---------------- Step  1010000 ----- CPU =      6.4066 (sec) ----------------
Time     = 5050000.000000 Temp     = 246.908230 Press    = -1044.779229 
PotEng   = -10.255723 KinEng   = 0.734549 Lx       = 24.876178 
Ly       = 24.876178 Lz       = 24.876178 Density  = 0.994969 
Volume   = 15393.981990 
---------------- Step  1020000 ----- CPU =     12.8188 (sec) ----------------
Time     = 5100000.000000 Temp     = 261.309274 Press    = 987.533014 
PotEng   = -10.294458 KinEng   = 0.777392 Lx       = 24.796858 
Ly       = 24.796858 Lz       = 24.796858 Density  = 1.004548 
Volume   = 15247.194633 
---------------- Step  1030000 ----- CPU =     19.2453 (sec) ----------------
Time     = 5150000.000000 Temp     = 266.458654 Press    = 353.278928 
PotEng   = -10.257100 KinEng   = 0.792711 Lx       = 24.769821 
Ly       = 24.769821 Lz       = 24.769821 Density  = 1.007841 
Volume   = 15197.375523 
---------------- Step  1040000 ----- CPU =     25.6921 (sec) ----------------
Time     = 5200000.000000 Temp     = 240.305494 Press    = -211.218684 
PotEng   = -10.307676 KinEng   = 0.714906 Lx       = 24.800637 
Ly       = 24.800637 Lz       = 24.800637 Density  = 1.004089 
Volume   = 15254.167387 
---------------- Step  1050000 ----- CPU =     32.1126 (sec) ----------------
Time     = 5250000.000000 Temp     = 266.492027 Press    = 15.421263 
PotEng   = -10.271846 KinEng   = 0.792811 Lx       = 24.803280 
Ly       = 24.803280 Lz       = 24.803280 Density  = 1.003768 
Volume   = 15259.044592 
---------------- Step  1060000 ----- CPU =     38.5082 (sec) ----------------
Time     = 5300000.000000 Temp     = 243.490360 Press    = 1101.004879 
PotEng   = -10.285155 KinEng   = 0.724381 Lx       = 24.685085 
Ly       = 24.685085 Lz       = 24.685085 Density  = 1.018255 
Volume   = 15041.941474 
---------------- Step  1070000 ----- CPU =     44.9335 (sec) ----------------
Time     = 5350000.000000 Temp     = 254.312353 Press    = 467.236379 
PotEng   = -10.236735 KinEng   = 0.756576 Lx       = 24.815602 
Ly       = 24.815602 Lz       = 24.815602 Density  = 1.002273 
Volume   = 15281.796933 
---------------- Step  1080000 ----- CPU =     51.2953 (sec) ----------------
Time     = 5400000.000000 Temp     = 244.394136 Press    = -245.666971 
PotEng   = -10.306628 KinEng   = 0.727070 Lx       = 24.829662 
Ly       = 24.829662 Lz       = 24.829662 Density  = 1.000571 
Volume   = 15307.788324 
---------------- Step  1090000 ----- CPU =     57.7013 (sec) ----------------
Time     = 5450000.000000 Temp     = 269.903653 Press    = 692.145780 
PotEng   = -10.316933 KinEng   = 0.802960 Lx       = 24.721229 
Ly       = 24.721229 Lz       = 24.721229 Density  = 1.013795 
Volume   = 15108.110971 
---------------- Step  1100000 ----- CPU =     64.1324 (sec) ----------------
Time     = 5500000.000000 Temp     = 252.594925 Press    = 377.492787 
PotEng   = -10.273628 KinEng   = 0.751467 Lx       = 24.846532 
Ly       = 24.846532 Lz       = 24.846532 Density  = 0.998535 
Volume   = 15339.011031 
---------------- Step  1110000 ----- CPU =     70.6342 (sec) ----------------
Time     = 5550000.000000 Temp     = 257.625496 Press    = -1137.846955 
PotEng   = -10.255659 KinEng   = 0.766433 Lx       = 24.842310 
Ly       = 24.842310 Lz       = 24.842310 Density  = 0.999044 
Volume   = 15331.192181 
---------------- Step  1120000 ----- CPU =     77.0091 (sec) ----------------
Time     = 5600000.000000 Temp     = 252.020490 Press    = 171.270328 
PotEng   = -10.330620 KinEng   = 0.749758 Lx       = 24.764671 
Ly       = 24.764671 Lz       = 24.764671 Density  = 1.008470 
Volume   = 15187.899038 
---------------- Step  1130000 ----- CPU =     83.4524 (sec) ----------------
Time     = 5650000.000000 Temp     = 252.242080 Press    = 46.177495 
PotEng   = -10.311071 KinEng   = 0.750417 Lx       = 24.761033 
Ly       = 24.761033 Lz       = 24.761033 Density  = 1.008914 
Volume   = 15181.205360 
---------------- Step  1140000 ----- CPU =     89.8788 (sec) ----------------
Time     = 5700000.000000 Temp     = 256.520130 Press    = 455.391466 
PotEng   = -10.271753 KinEng   = 0.763144 Lx       = 24.767744 
Ly       = 24.767744 Lz       = 24.767744 Density  = 1.008094 
Volume   = 15193.552612 
---------------- Step  1150000 ----- CPU =     96.2404 (sec) ----------------
Time     = 5750000.000000 Temp     = 272.715072 Press    = -147.876298 
PotEng   = -10.364561 KinEng   = 0.811324 Lx       = 24.841358 
Ly       = 24.841358 Lz       = 24.841358 Density  = 0.999159 
Volume   = 15329.430568 
---------------- Step  1160000 ----- CPU =    102.6175 (sec) ----------------
Time     = 5800000.000000 Temp     = 251.942358 Press    = 1099.319069 
PotEng   = -10.259025 KinEng   = 0.749526 Lx       = 24.722675 
Ly       = 24.722675 Lz       = 24.722675 Density  = 1.013618 
Volume   = 15110.761752 
---------------- Step  1170000 ----- CPU =    108.9808 (sec) ----------------
Time     = 5850000.000000 Temp     = 243.996530 Press    = 1144.451476 
PotEng   = -10.253180 KinEng   = 0.725887 Lx       = 24.754796 
Ly       = 24.754796 Lz       = 24.754796 Density  = 1.009677 
Volume   = 15169.736883 
---------------- Step  1180000 ----- CPU =    115.3731 (sec) ----------------
Time     = 5900000.000000 Temp     = 261.792116 Press    = -28.931500 
PotEng   = -10.261025 KinEng   = 0.778828 Lx       = 24.757992 
Ly       = 24.757992 Lz       = 24.757992 Density  = 1.009286 
Volume   = 15175.612844 
---------------- Step  1190000 ----- CPU =    121.8031 (sec) ----------------
Time     = 5950000.000000 Temp     = 262.992497 Press    = -142.370285 
PotEng   = -10.284528 KinEng   = 0.782400 Lx       = 24.776631 
Ly       = 24.776631 Lz       = 24.776631 Density  = 1.007010 
Volume   = 15209.914413 
---------------- Step  1200000 ----- CPU =    128.1803 (sec) ----------------
Time     = 6000000.000000 Temp     = 264.019626 Press    = 827.775481 
PotEng   = -10.260727 KinEng   = 0.785455 Lx       = 24.777025 
Ly       = 24.777025 Lz       = 24.777025 Density  = 1.006962 
Volume   = 15210.639924 
---------------- Step  1210000 ----- CPU =    134.6345 (sec) ----------------
Time     = 6050000.000000 Temp     = 251.163373 Press    = -125.236360 
PotEng   = -10.321332 KinEng   = 0.747208 Lx       = 24.823515 
Ly       = 24.823515 Lz       = 24.823515 Density  = 1.001315 
Volume   = 15296.420674 
---------------- Step  1220000 ----- CPU =    141.0571 (sec) ----------------
Time     = 6100000.000000 Temp     = 233.985083 Press    = -1126.565997 
PotEng   = -10.272779 KinEng   = 0.696103 Lx       = 24.871015 
Ly       = 24.871015 Lz       = 24.871015 Density  = 0.995589 
Volume   = 15384.398541 
---------------- Step  1230000 ----- CPU =    147.4804 (sec) ----------------
Time     = 6150000.000000 Temp     = 257.898109 Press    = 685.612997 
PotEng   = -10.272626 KinEng   = 0.767244 Lx       = 24.787381 
Ly       = 24.787381 Lz       = 24.787381 Density  = 1.005700 
Volume   = 15229.720952 
---------------- Step  1240000 ----- CPU =    153.9219 (sec) ----------------
Time     = 6200000.000000 Temp     = 262.984129 Press    = 392.509549 
PotEng   = -10.282822 KinEng   = 0.782375 Lx       = 24.734608 
Ly       = 24.734608 Lz       = 24.734608 Density  = 1.012151 
Volume   = 15132.654227 
---------------- Step  1250000 ----- CPU =    160.3196 (sec) ----------------
Time     = 6250000.000000 Temp     = 238.897251 Press    = -404.689485 
PotEng   = -10.281630 KinEng   = 0.710716 Lx       = 24.818764 
Ly       = 24.818764 Lz       = 24.818764 Density  = 1.001890 
Volume   = 15287.639252 
---------------- Step  1260000 ----- CPU =    166.7276 (sec) ----------------
Time     = 6300000.000000 Temp     = 259.963475 Press    = 9.054670 
PotEng   = -10.247662 KinEng   = 0.773388 Lx       = 24.876718 
Ly       = 24.876718 Lz       = 24.876718 Density  = 0.994904 
Volume   = 15394.984085 
---------------- Step  1270000 ----- CPU =    173.2034 (sec) ----------------
Time     = 6350000.000000 Temp     = 268.766284 Press    = 1.121920 
PotEng   = -10.232801 KinEng   = 0.799577 Lx       = 24.821788 
Ly       = 24.821788 Lz       = 24.821788 Density  = 1.001524 
Volume   = 15293.229302 
---------------- Step  1280000 ----- CPU =    179.6189 (sec) ----------------
Time     = 6400000.000000 Temp     = 253.566711 Press    = -284.191624 
PotEng   = -10.258668 KinEng   = 0.754358 Lx       = 24.800124 
Ly       = 24.800124 Lz       = 24.800124 Density  = 1.004151 
Volume   = 15253.221297 
---------------- Step  1290000 ----- CPU =    186.0235 (sec) ----------------
Time     = 6450000.000000 Temp     = 266.549794 Press    = -408.655654 
PotEng   = -10.260508 KinEng   = 0.792982 Lx       = 24.803276 
Ly       = 24.803276 Lz       = 24.803276 Density  = 1.003768 
Volume   = 15259.037513 
---------------- Step  1300000 ----- CPU =    192.4385 (sec) ----------------
Time     = 6500000.000000 Temp     = 269.243219 Press    = 543.282604 
PotEng   = -10.309803 KinEng   = 0.800995 Lx       = 24.826816 
Ly       = 24.826816 Lz       = 24.826816 Density  = 1.000916 
Volume   = 15302.523681 
---------------- Step  1310000 ----- CPU =    198.8346 (sec) ----------------
Time     = 6550000.000000 Temp     = 272.276544 Press    = -267.172514 
PotEng   = -10.251062 KinEng   = 0.810019 Lx       = 24.864747 
Ly       = 24.864747 Lz       = 24.864747 Density  = 0.996342 
Volume   = 15372.769468 
---------------- Step  1320000 ----- CPU =    205.1963 (sec) ----------------
Time     = 6600000.000000 Temp     = 255.486311 Press    = 1035.340011 
PotEng   = -10.293135 KinEng   = 0.760069 Lx       = 24.861158 
Ly       = 24.861158 Lz       = 24.861158 Density  = 0.996773 
Volume   = 15366.115249 
---------------- Step  1330000 ----- CPU =    211.4974 (sec) ----------------
Time     = 6650000.000000 Temp     = 253.986793 Press    = -959.503946 
PotEng   = -10.266942 KinEng   = 0.755608 Lx       = 24.855759 
Ly       = 24.855759 Lz       = 24.855759 Density  = 0.997423 
Volume   = 15356.105311 
---------------- Step  1340000 ----- CPU =    217.9014 (sec) ----------------
Time     = 6700000.000000 Temp     = 256.555792 Press    = 276.156721 
PotEng   = -10.259979 KinEng   = 0.763250 Lx       = 24.872062 
Ly       = 24.872062 Lz       = 24.872062 Density  = 0.995463 
Volume   = 15386.342616 
---------------- Step  1350000 ----- CPU =    224.3104 (sec) ----------------
Time     = 6750000.000000 Temp     = 264.062393 Press    = -75.166551 
PotEng   = -10.286432 KinEng   = 0.785582 Lx       = 24.830148 
Ly       = 24.830148 Lz       = 24.830148 Density  = 1.000513 
Volume   = 15308.686802 
---------------- Step  1360000 ----- CPU =    230.7145 (sec) ----------------
Time     = 6800000.000000 Temp     = 263.165781 Press    = 349.464747 
PotEng   = -10.219124 KinEng   = 0.782915 Lx       = 24.714998 
Ly       = 24.714998 Lz       = 24.714998 Density  = 1.014562 
Volume   = 15096.689194 
---------------- Step  1370000 ----- CPU =    237.1512 (sec) ----------------
Time     = 6850000.000000 Temp     = 276.372463 Press    = 612.009501 
PotEng   = -10.259182 KinEng   = 0.822205 Lx       = 24.801696 
Ly       = 24.801696 Lz       = 24.801696 Density  = 1.003960 
Volume   = 15256.122198 
---------------- Step  1380000 ----- CPU =    243.5334 (sec) ----------------
Time     = 6900000.000000 Temp     = 256.781691 Press    = 540.329616 
PotEng   = -10.280350 KinEng   = 0.763922 Lx       = 24.832377 
Ly       = 24.832377 Lz       = 24.832377 Density  = 1.000243 
Volume   = 15312.809212 
---------------- Step  1390000 ----- CPU =    249.9059 (sec) ----------------
Time     = 6950000.000000 Temp     = 266.959669 Press    = -1128.559530 
PotEng   = -10.208263 KinEng   = 0.794202 Lx       = 24.854681 
Ly       = 24.854681 Lz       = 24.854681 Density  = 0.997553 
Volume   = 15354.107931 
---------------- Step  1400000 ----- CPU =    256.2957 (sec) ----------------
Time     = 7000000.000000 Temp     = 259.741092 Press    = 448.446535 
PotEng   = -10.322178 KinEng   = 0.772727 Lx       = 24.782976 
Ly       = 24.782976 Lz       = 24.782976 Density  = 1.006237 
Volume   = 15221.602959 
---------------- Step  1410000 ----- CPU =    262.6846 (sec) ----------------
Time     = 7050000.000000 Temp     = 258.035403 Press    = -10.658358 
PotEng   = -10.307389 KinEng   = 0.767652 Lx       = 24.856333 
Ly       = 24.856333 Lz       = 24.856333 Density  = 0.997354 
Volume   = 15357.170313 
---------------- Step  1420000 ----- CPU =    269.0101 (sec) ----------------
Time     = 7100000.000000 Temp     = 255.034325 Press    = -777.866202 
PotEng   = -10.327887 KinEng   = 0.758724 Lx       = 24.852997 
Ly       = 24.852997 Lz       = 24.852997 Density  = 0.997756 
Volume   = 15350.986945 
---------------- Step  1430000 ----- CPU =    275.3533 (sec) ----------------
Time     = 7150000.000000 Temp     = 246.179221 Press    = -1119.610996 
PotEng   = -10.261566 KinEng   = 0.732380 Lx       = 24.775870 
Ly       = 24.775870 Lz       = 24.775870 Density  = 1.007103 
Volume   = 15208.513039 
---------------- Step  1440000 ----- CPU =    281.7216 (sec) ----------------
Time     = 7200000.000000 Temp     = 260.796153 Press    = 611.812085 
PotEng   = -10.330717 KinEng   = 0.775865 Lx       = 24.861415 
Ly       = 24.861415 Lz       = 24.861415 Density  = 0.996742 
Volume   = 15366.591722 
---------------- Step  1450000 ----- CPU =    288.0587 (sec) ----------------
Time     = 7250000.000000 Temp     = 273.365118 Press    = 51.188902 
PotEng   = -10.276238 KinEng   = 0.813258 Lx       = 24.885976 
Ly       = 24.885976 Lz       = 24.885976 Density  = 0.993794 
Volume   = 15412.179528 
---------------- Step  1460000 ----- CPU =    294.4774 (sec) ----------------
Time     = 7300000.000000 Temp     = 258.155858 Press    = -1025.115502 
PotEng   = -10.286226 KinEng   = 0.768011 Lx       = 24.891586 
Ly       = 24.891586 Lz       = 24.891586 Density  = 0.993122 
Volume   = 15422.603964 
---------------- Step  1470000 ----- CPU =    300.9463 (sec) ----------------
Time     = 7350000.000000 Temp     = 254.826956 Press    = 346.490898 
PotEng   = -10.279611 KinEng   = 0.758107 Lx       = 24.809675 
Ly       = 24.809675 Lz       = 24.809675 Density  = 1.002992 
Volume   = 15270.850608 
---------------- Step  1480000 ----- CPU =    307.3221 (sec) ----------------
Time     = 7400000.000000 Temp     = 252.844769 Press    = 294.412803 
PotEng   = -10.342923 KinEng   = 0.752210 Lx       = 24.794983 
Ly       = 24.794983 Lz       = 24.794983 Density  = 1.004776 
Volume   = 15243.736616 
---------------- Step  1490000 ----- CPU =    313.7118 (sec) ----------------
Time     = 7450000.000000 Temp     = 250.973800 Press    = 90.454373 
PotEng   = -10.265620 KinEng   = 0.746644 Lx       = 24.834904 
Ly       = 24.834904 Lz       = 24.834904 Density  = 0.999938 
Volume   = 15317.485592 
---------------- Step  1500000 ----- CPU =    320.1423 (sec) ----------------
Time     = 7500000.000000 Temp     = 284.923422 Press    = 80.330186 
PotEng   = -10.261425 KinEng   = 0.847644 Lx       = 24.798163 
Ly       = 24.798163 Lz       = 24.798163 Density  = 1.004389 
Volume   = 15249.601949 
---------------- Step  1510000 ----- CPU =    326.5828 (sec) ----------------
Time     = 7550000.000000 Temp     = 268.071293 Press    = -954.257716 
PotEng   = -10.239126 KinEng   = 0.797509 Lx       = 24.801202 
Ly       = 24.801202 Lz       = 24.801202 Density  = 1.004020 
Volume   = 15255.209951 
---------------- Step  1520000 ----- CPU =    332.9874 (sec) ----------------
Time     = 7600000.000000 Temp     = 251.572352 Press    = 1010.716204 
PotEng   = -10.248531 KinEng   = 0.748425 Lx       = 24.721533 
Ly       = 24.721533 Lz       = 24.721533 Density  = 1.013758 
Volume   = 15108.669185 
---------------- Step  1530000 ----- CPU =    339.3753 (sec) ----------------
Time     = 7650000.000000 Temp     = 255.821208 Press    = -38.917959 
PotEng   = -10.253489 KinEng   = 0.761065 Lx       = 24.958215 
Ly       = 24.958215 Lz       = 24.958215 Density  = 0.985190 
Volume   = 15546.784114 
---------------- Step  1540000 ----- CPU =    345.7425 (sec) ----------------
Time     = 7700000.000000 Temp     = 275.258097 Press    = 55.904127 
PotEng   = -10.195834 KinEng   = 0.818890 Lx       = 24.853539 
Ly       = 24.853539 Lz       = 24.853539 Density  = 0.997690 
Volume   = 15351.990764 
---------------- Step  1550000 ----- CPU =    352.1134 (sec) ----------------
Time     = 7750000.000000 Temp     = 258.949359 Press    = 279.149001 
PotEng   = -10.300749 KinEng   = 0.770371 Lx       = 24.823812 
Ly       = 24.823812 Lz       = 24.823812 Density  = 1.001279 
Volume   = 15296.970649 
---------------- Step  1560000 ----- CPU =    358.4272 (sec) ----------------
Time     = 7800000.000000 Temp     = 264.263515 Press    = -616.861371 
PotEng   = -10.279618 KinEng   = 0.786181 Lx       = 24.861572 
Ly       = 24.861572 Lz       = 24.861572 Density  = 0.996724 
Volume   = 15366.881334 
---------------- Step  1570000 ----- CPU =    364.8326 (sec) ----------------
Time     = 7850000.000000 Temp     = 264.149712 Press    = 489.461048 
PotEng   = -10.314116 KinEng   = 0.785842 Lx       = 24.723563 
Ly       = 24.723563 Lz       = 24.723563 Density  = 1.013508 
Volume   = 15112.391588 
---------------- Step  1580000 ----- CPU =    371.2537 (sec) ----------------
Time     = 7900000.000000 Temp     = 229.760829 Press    = -421.335726 
PotEng   = -10.260640 KinEng   = 0.683536 Lx       = 24.801640 
Ly       = 24.801640 Lz       = 24.801640 Density  = 1.003967 
Volume   = 15256.017410 
---------------- Step  1590000 ----- CPU =    377.6773 (sec) ----------------
Time     = 7950000.000000 Temp     = 275.257107 Press    = 419.519333 
PotEng   = -10.257403 KinEng   = 0.818887 Lx       = 24.809301 
Ly       = 24.809301 Lz       = 24.809301 Density  = 1.003037 
Volume   = 15270.159293 
---------------- Step  1600000 ----- CPU =    384.0492 (sec) ----------------
Time     = 8000000.000000 Temp     = 262.837547 Press    = -122.212732 
PotEng   = -10.283225 KinEng   = 0.781939 Lx       = 24.766682 
Ly       = 24.766682 Lz       = 24.766682 Density  = 1.008224 
Volume   = 15191.598100 
---------------- Step  1610000 ----- CPU =    390.4282 (sec) ----------------
Time     = 8050000.000000 Temp     = 247.598175 Press    = 1226.834917 
PotEng   = -10.285598 KinEng   = 0.736602 Lx       = 24.709708 
Ly       = 24.709708 Lz       = 24.709708 Density  = 1.015214 
Volume   = 15086.998963 
---------------- Step  1620000 ----- CPU =    396.8260 (sec) ----------------
Time     = 8100000.000000 Temp     = 259.322967 Press    = -117.855552 
PotEng   = -10.237987 KinEng   = 0.771483 Lx       = 24.811558 
Ly       = 24.811558 Lz       = 24.811558 Density  = 1.002763 
Volume   = 15274.328721 
---------------- Step  1630000 ----- CPU =    403.1465 (sec) ----------------
Time     = 8150000.000000 Temp     = 267.828478 Press    = -727.667657 
PotEng   = -10.274932 KinEng   = 0.796787 Lx       = 24.802198 
Ly       = 24.802198 Lz       = 24.802198 Density  = 1.003899 
Volume   = 15257.047775 
---------------- Step  1640000 ----- CPU =    409.5097 (sec) ----------------
Time     = 8200000.000000 Temp     = 272.833532 Press    = -191.612321 
PotEng   = -10.292681 KinEng   = 0.811677 Lx       = 24.906460 
Ly       = 24.906460 Lz       = 24.906460 Density  = 0.991344 
Volume   = 15450.268218 
---------------- Step  1650000 ----- CPU =    415.9451 (sec) ----------------
Time     = 8250000.000000 Temp     = 246.906118 Press    = 86.607743 
PotEng   = -10.320513 KinEng   = 0.734543 Lx       = 24.733512 
Ly       = 24.733512 Lz       = 24.733512 Density  = 1.012286 
Volume   = 15130.642978 
---------------- Step  1660000 ----- CPU =    422.3547 (sec) ----------------
Time     = 8300000.000000 Temp     = 261.156652 Press    = -660.148101 
PotEng   = -10.280287 KinEng   = 0.776938 Lx       = 24.831169 
Ly       = 24.831169 Lz       = 24.831169 Density  = 1.000389 
Volume   = 15310.575219 
---------------- Step  1670000 ----- CPU =    428.7285 (sec) ----------------
Time     = 8350000.000000 Temp     = 236.595427 Press    = -306.996186 
PotEng   = -10.277258 KinEng   = 0.703869 Lx       = 24.849386 
Ly       = 24.849386 Lz       = 24.849386 Density  = 0.998191 
Volume   = 15344.296848 
---------------- Step  1680000 ----- CPU =    435.1169 (sec) ----------------
Time     = 8400000.000000 Temp     = 249.326458 Press    = 671.767770 
PotEng   = -10.254770 KinEng   = 0.741743 Lx       = 24.812948 
Ly       = 24.812948 Lz       = 24.812948 Density  = 1.002595 
Volume   = 15276.894962 
---------------- Step  1690000 ----- CPU =    441.5067 (sec) ----------------
Time     = 8450000.000000 Temp     = 257.655302 Press    = 630.227599 
PotEng   = -10.280049 KinEng   = 0.766521 Lx       = 24.758788 
Ly       = 24.758788 Lz       = 24.758788 Density  = 1.009189 
Volume   = 15177.076526 
---------------- Step  1700000 ----- CPU =    447.9309 (sec) ----------------
Time     = 8500000.000000 Temp     = 259.780149 Press    = -385.736689 
PotEng   = -10.316190 KinEng   = 0.772843 Lx       = 24.798572 
Ly       = 24.798572 Lz       = 24.798572 Density  = 1.004339 
Volume   = 15250.357140 
---------------- Step  1710000 ----- CPU =    454.3464 (sec) ----------------
Time     = 8550000.000000 Temp     = 254.313275 Press    = -480.563382 
PotEng   = -10.315004 KinEng   = 0.756579 Lx       = 24.839134 
Ly       = 24.839134 Lz       = 24.839134 Density  = 0.999427 
Volume   = 15325.312552 
---------------- Step  1720000 ----- CPU =    460.7607 (sec) ----------------
Time     = 8600000.000000 Temp     = 253.131967 Press    = 99.817759 
PotEng   = -10.311729 KinEng   = 0.753065 Lx       = 24.927429 
Ly       = 24.927429 Lz       = 24.927429 Density  = 0.988845 
Volume   = 15489.323511 
---------------- Step  1730000 ----- CPU =    467.1548 (sec) ----------------
Time     = 8650000.000000 Temp     = 267.300495 Press    = -1263.816213 
PotEng   = -10.303447 KinEng   = 0.795216 Lx       = 24.876383 
Ly       = 24.876383 Lz       = 24.876383 Density  = 0.994944 
Volume   = 15394.361926 
---------------- Step  1740000 ----- CPU =    473.6009 (sec) ----------------
Time     = 8700000.000000 Temp     = 246.500948 Press    = 152.546370 
PotEng   = -10.326963 KinEng   = 0.733337 Lx       = 24.819238 
Ly       = 24.819238 Lz       = 24.819238 Density  = 1.001833 
Volume   = 15288.516644 
---------------- Step  1750000 ----- CPU =    479.9941 (sec) ----------------
Time     = 8750000.000000 Temp     = 257.692705 Press    = 61.416988 
PotEng   = -10.253912 KinEng   = 0.766633 Lx       = 24.856281 
Ly       = 24.856281 Lz       = 24.856281 Density  = 0.997360 
Volume   = 15357.072988 
---------------- Step  1760000 ----- CPU =    486.3571 (sec) ----------------
Time     = 8800000.000000 Temp     = 250.509654 Press    = -986.911496 
PotEng   = -10.262283 KinEng   = 0.745263 Lx       = 24.838650 
Ly       = 24.838650 Lz       = 24.838650 Density  = 0.999486 
Volume   = 15324.416491 
---------------- Step  1770000 ----- CPU =    492.7699 (sec) ----------------
Time     = 8850000.000000 Temp     = 254.340687 Press    = 71.960160 
PotEng   = -10.291354 KinEng   = 0.756661 Lx       = 24.873530 
Ly       = 24.873530 Lz       = 24.873530 Density  = 0.995287 
Volume   = 15389.065712 
---------------- Step  1780000 ----- CPU =    499.1833 (sec) ----------------
Time     = 8900000.000000 Temp     = 252.404963 Press    = -733.970220 
PotEng   = -10.349609 KinEng   = 0.750902 Lx       = 24.851321 
Ly       = 24.851321 Lz       = 24.851321 Density  = 0.997958 
Volume   = 15347.880774 
---------------- Step  1790000 ----- CPU =    505.6255 (sec) ----------------
Time     = 8950000.000000 Temp     = 261.189000 Press    = 876.577498 
PotEng   = -10.292251 KinEng   = 0.777034 Lx       = 24.748704 
Ly       = 24.748704 Lz       = 24.748704 Density  = 1.010423 
Volume   = 15158.540590 
---------------- Step  1800000 ----- CPU =    511.9718 (sec) ----------------
Time     = 9000000.000000 Temp     = 245.462360 Press    = -967.551243 
PotEng   = -10.304540 KinEng   = 0.730248 Lx       = 24.915708 
Ly       = 24.915708 Lz       = 24.915708 Density  = 0.990241 
Volume   = 15467.484846 
---------------- Step  1810000 ----- CPU =    518.3465 (sec) ----------------
Time     = 9050000.000000 Temp     = 252.395215 Press    = -974.310796 
PotEng   = -10.276190 KinEng   = 0.750873 Lx       = 24.973099 
Ly       = 24.973099 Lz       = 24.973099 Density  = 0.983429 
Volume   = 15574.614186 
---------------- Step  1820000 ----- CPU =    524.7236 (sec) ----------------
Time     = 9100000.000000 Temp     = 258.368742 Press    = -171.603916 
PotEng   = -10.271207 KinEng   = 0.768644 Lx       = 24.774904 
Ly       = 24.774904 Lz       = 24.774904 Density  = 1.007220 
Volume   = 15206.734505 
---------------- Step  1830000 ----- CPU =    531.1509 (sec) ----------------
Time     = 9150000.000000 Temp     = 268.311904 Press    = -529.051315 
PotEng   = -10.315580 KinEng   = 0.798225 Lx       = 24.719055 
Ly       = 24.719055 Lz       = 24.719055 Density  = 1.014063 
Volume   = 15104.126282 
---------------- Step  1840000 ----- CPU =    537.5060 (sec) ----------------
Time     = 9200000.000000 Temp     = 249.693307 Press    = 553.992078 
PotEng   = -10.288639 KinEng   = 0.742835 Lx       = 24.746924 
Ly       = 24.746924 Lz       = 24.746924 Density  = 1.010641 
Volume   = 15155.269675 
---------------- Step  1850000 ----- CPU =    543.9293 (sec) ----------------
Time     = 9250000.000000 Temp     = 269.214331 Press    = -116.992086 
PotEng   = -10.275984 KinEng   = 0.800909 Lx       = 24.774592 
Ly       = 24.774592 Lz       = 24.774592 Density  = 1.007259 
Volume   = 15206.158959 
---------------- Step  1860000 ----- CPU =    550.2992 (sec) ----------------
Time     = 9300000.000000 Temp     = 269.564457 Press    = 174.545118 
PotEng   = -10.334321 KinEng   = 0.801951 Lx       = 24.770162 
Ly       = 24.770162 Lz       = 24.770162 Density  = 1.007799 
Volume   = 15198.003275 
---------------- Step  1870000 ----- CPU =    556.6925 (sec) ----------------
Time     = 9350000.000000 Temp     = 272.388083 Press    = -0.169358 
PotEng   = -10.329030 KinEng   = 0.810351 Lx       = 24.832834 
Ly       = 24.832834 Lz       = 24.832834 Density  = 1.000188 
Volume   = 15313.655348 
---------------- Step  1880000 ----- CPU =    563.1071 (sec) ----------------
Time     = 9400000.000000 Temp     = 243.851558 Press    = 272.874889 
PotEng   = -10.229265 KinEng   = 0.725455 Lx       = 24.898779 
Ly       = 24.898779 Lz       = 24.898779 Density  = 0.992262 
Volume   = 15435.977804 
---------------- Step  1890000 ----- CPU =    569.5358 (sec) ----------------
Time     = 9450000.000000 Temp     = 259.205528 Press    = -1110.726284 
PotEng   = -10.296087 KinEng   = 0.771133 Lx       = 24.839472 
Ly       = 24.839472 Lz       = 24.839472 Density  = 0.999386 
Volume   = 15325.938018 
---------------- Step  1900000 ----- CPU =    575.9310 (sec) ----------------
Time     = 9500000.000000 Temp     = 250.027924 Press    = -434.560537 
PotEng   = -10.244181 KinEng   = 0.743830 Lx       = 24.882054 
Ly       = 24.882054 Lz       = 24.882054 Density  = 0.994264 
Volume   = 15404.892403 
---------------- Step  1910000 ----- CPU =    582.3369 (sec) ----------------
Time     = 9550000.000000 Temp     = 288.635917 Press    = 354.143541 
PotEng   = -10.196341 KinEng   = 0.858688 Lx       = 24.870212 
Ly       = 24.870212 Lz       = 24.870212 Density  = 0.995685 
Volume   = 15382.909061 
---------------- Step  1920000 ----- CPU =    588.7336 (sec) ----------------
Time     = 9600000.000000 Temp     = 267.247712 Press    = -140.185165 
PotEng   = -10.258568 KinEng   = 0.795059 Lx       = 24.821703 
Ly       = 24.821703 Lz       = 24.821703 Density  = 1.001534 
Volume   = 15293.071421 
---------------- Step  1930000 ----- CPU =    595.1005 (sec) ----------------
Time     = 9650000.000000 Temp     = 244.204893 Press    = -21.492099 
PotEng   = -10.310889 KinEng   = 0.726507 Lx       = 24.835172 
Ly       = 24.835172 Lz       = 24.835172 Density  = 0.999906 
Volume   = 15317.980827 
---------------- Step  1940000 ----- CPU =    601.5193 (sec) ----------------
Time     = 9700000.000000 Temp     = 252.209574 Press    = -619.297450 
PotEng   = -10.310291 KinEng   = 0.750320 Lx       = 24.876178 
Ly       = 24.876178 Lz       = 24.876178 Density  = 0.994969 
Volume   = 15393.982126 
---------------- Step  1950000 ----- CPU =    607.9542 (sec) ----------------
Time     = 9750000.000000 Temp     = 264.513306 Press    = -807.470125 
PotEng   = -10.297126 KinEng   = 0.786924 Lx       = 24.920954 
Ly       = 24.920954 Lz       = 24.920954 Density  = 0.989616 
Volume   = 15477.257330 
---------------- Step  1960000 ----- CPU =    614.4028 (sec) ----------------
Time     = 9800000.000000 Temp     = 259.497426 Press    = -494.543500 
PotEng   = -10.267275 KinEng   = 0.772002 Lx       = 24.773789 
Ly       = 24.773789 Lz       = 24.773789 Density  = 1.007357 
Volume   = 15204.680030 
---------------- Step  1970000 ----- CPU =    620.8386 (sec) ----------------
Time     = 9850000.000000 Temp     = 252.563294 Press    = -149.632961 
PotEng   = -10.309633 KinEng   = 0.751373 Lx       = 24.818060 
Ly       = 24.818060 Lz       = 24.818060 Density  = 1.001975 
Volume   = 15286.339111 
---------------- Step  1980000 ----- CPU =    627.2300 (sec) ----------------
Time     = 9900000.000000 Temp     = 258.661017 Press    = 13.010745 
PotEng   = -10.300236 KinEng   = 0.769513 Lx       = 24.749678 
Ly       = 24.749678 Lz       = 24.749678 Density  = 1.010304 
Volume   = 15160.329865 
---------------- Step  1990000 ----- CPU =    633.6450 (sec) ----------------
Time     = 9950000.000000 Temp     = 253.881670 Press    = -80.155883 
PotEng   = -10.251101 KinEng   = 0.755295 Lx       = 24.860241 
Ly       = 24.860241 Lz       = 24.860241 Density  = 0.996884 
Volume   = 15364.413410 
---------------- Step  2000000 ----- CPU =    640.0343 (sec) ----------------
Time     = 10000000.000000 Temp     = 243.352642 Press    = 305.219840 
PotEng   = -10.294279 KinEng   = 0.723971 Lx       = 24.777723 
Ly       = 24.777723 Lz       = 24.777723 Density  = 1.006877 
Volume   = 15211.925609 
---------------- Step  2010000 ----- CPU =    646.4631 (sec) ----------------
Time     = 10050000.000000 Temp     = 260.670399 Press    = 216.656546 
PotEng   = -10.273863 KinEng   = 0.775491 Lx       = 24.791117 
Ly       = 24.791117 Lz       = 24.791117 Density  = 1.005246 
Volume   = 15236.607782 
---------------- Step  2020000 ----- CPU =    652.8735 (sec) ----------------
Time     = 10100000.000000 Temp     = 255.104895 Press    = -389.351470 
PotEng   = -10.339070 KinEng   = 0.758934 Lx       = 24.862262 
Ly       = 24.862262 Lz       = 24.862262 Density  = 0.996641 
Volume   = 15368.162080 
---------------- Step  2030000 ----- CPU =    659.2348 (sec) ----------------
Time     = 10150000.000000 Temp     = 267.345523 Press    = 683.799226 
PotEng   = -10.248967 KinEng   = 0.795350 Lx       = 24.735309 
Ly       = 24.735309 Lz       = 24.735309 Density  = 1.012065 
Volume   = 15133.939934 
---------------- Step  2040000 ----- CPU =    665.6152 (sec) ----------------
Time     = 10200000.000000 Temp     = 247.982462 Press    = 335.999064 
PotEng   = -10.288384 KinEng   = 0.737745 Lx       = 24.778830 
Ly       = 24.778830 Lz       = 24.778830 Density  = 1.006742 
Volume   = 15213.964308 
---------------- Step  2050000 ----- CPU =    672.0847 (sec) ----------------
Time     = 10250000.000000 Temp     = 272.343460 Press    = -286.014859 
PotEng   = -10.287737 KinEng   = 0.810219 Lx       = 24.826799 
Ly       = 24.826799 Lz       = 24.826799 Density  = 1.000918 
Volume   = 15302.492434 
---------------- Step  2060000 ----- CPU =    678.4759 (sec) ----------------
Time     = 10300000.000000 Temp     = 264.939708 Press    = -726.057792 
PotEng   = -10.291175 KinEng   = 0.788192 Lx       = 24.819170 
Ly       = 24.819170 Lz       = 24.819170 Density  = 1.001841 
Volume   = 15288.390648 
---------------- Step  2070000 ----- CPU =    684.8874 (sec) ----------------
Time     = 10350000.000000 Temp     = 249.254771 Press    = -445.307414 
PotEng   = -10.275019 KinEng   = 0.741530 Lx       = 24.792803 
Ly       = 24.792803 Lz       = 24.792803 Density  = 1.005041 
Volume   = 15239.716171 
---------------- Step  2080000 ----- CPU =    691.3389 (sec) ----------------
Time     = 10400000.000000 Temp     = 254.481204 Press    = 94.224954 
PotEng   = -10.312647 KinEng   = 0.757079 Lx       = 24.813199 
Ly       = 24.813199 Lz       = 24.813199 Density  = 1.002564 
Volume   = 15277.358583 
---------------- Step  2090000 ----- CPU =    697.7687 (sec) ----------------
Time     = 10450000.000000 Temp     = 260.689360 Press    = 697.120510 
PotEng   = -10.253969 KinEng   = 0.775548 Lx       = 24.814521 
Ly       = 24.814521 Lz       = 24.814521 Density  = 1.002404 
Volume   = 15279.799858 
---------------- Step  2100000 ----- CPU =    704.0934 (sec) ----------------
Time     = 10500000.000000 Temp     = 270.828863 Press    = 607.360371 
PotEng   = -10.280239 KinEng   = 0.805713 Lx       = 24.806263 
Ly       = 24.806263 Lz       = 24.806263 Density  = 1.003405 
Volume   = 15264.551790 
---------------- Step  2110000 ----- CPU =    710.4434 (sec) ----------------
Time     = 10550000.000000 Temp     = 259.629358 Press    = -488.318493 
PotEng   = -10.213037 KinEng   = 0.772394 Lx       = 24.811327 
Ly       = 24.811327 Lz       = 24.811327 Density  = 1.002791 
Volume   = 15273.901155 
---------------- Step  2120000 ----- CPU =    716.8156 (sec) ----------------
Time     = 10600000.000000 Temp     = 267.791129 Press    = 52.195447 
PotEng   = -10.275022 KinEng   = 0.796675 Lx       = 24.774666 
Ly       = 24.774666 Lz       = 24.774666 Density  = 1.007250 
Volume   = 15206.295278 
---------------- Step  2130000 ----- CPU =    723.2302 (sec) ----------------
Time     = 10650000.000000 Temp     = 257.517460 Press    = -7.533358 
PotEng   = -10.331029 KinEng   = 0.766111 Lx       = 24.807712 
Ly       = 24.807712 Lz       = 24.807712 Density  = 1.003230 
Volume   = 15267.226579 
---------------- Step  2140000 ----- CPU =    729.6330 (sec) ----------------
Time     = 10700000.000000 Temp     = 255.457162 Press    = -324.046937 
PotEng   = -10.305153 KinEng   = 0.759982 Lx       = 24.782371 
Ly       = 24.782371 Lz       = 24.782371 Density  = 1.006310 
Volume   = 15220.487028 
---------------- Step  2150000 ----- CPU =    736.1088 (sec) ----------------
Time     = 10750000.000000 Temp     = 249.083330 Press    = -517.472272 
PotEng   = -10.338934 KinEng   = 0.741020 Lx       = 24.850395 
Ly       = 24.850395 Lz       = 24.850395 Density  = 0.998069 
Volume   = 15346.165959 
---------------- Step  2160000 ----- CPU =    742.4983 (sec) ----------------
Time     = 10800000.000000 Temp     = 260.666575 Press    = 241.320830 
PotEng   = -10.260314 KinEng   = 0.775480 Lx       = 24.768126 
Ly       = 24.768126 Lz       = 24.768126 Density  = 1.008048 
Volume   = 15194.255710 
---------------- Step  2170000 ----- CPU =    748.9093 (sec) ----------------
Time     = 10850000.000000 Temp     = 262.747303 Press    = 133.075393 
PotEng   = -10.226899 KinEng   = 0.781670 Lx       = 24.865853 
Ly       = 24.865853 Lz       = 24.865853 Density  = 0.996209 
Volume   = 15374.822490 
---------------- Step  2180000 ----- CPU =    755.2896 (sec) ----------------
Time     = 10900000.000000 Temp     = 273.261696 Press    = 339.464187 
PotEng   = -10.261865 KinEng   = 0.812950 Lx       = 24.774710 
Ly       = 24.774710 Lz       = 24.774710 Density  = 1.007244 
Volume   = 15206.376937 
---------------- Step  2190000 ----- CPU =    761.6985 (sec) ----------------
Time     = 10950000.000000 Temp     = 262.772261 Press    = -488.073855 
PotEng   = -10.269160 KinEng   = 0.781744 Lx       = 24.865202 
Ly       = 24.865202 Lz       = 24.865202 Density  = 0.996287 
Volume   = 15373.614244 
---------------- Step  2200000 ----- CPU =    768.1271 (sec) ----------------
Time     = 11000000.000000 Temp     = 276.013167 Press    = -304.703702 
PotEng   = -10.363721 KinEng   = 0.821136 Lx       = 24.780349 
Ly       = 24.780349 Lz       = 24.780349 Density  = 1.006557 
Volume   = 15216.762526 
---------------- Step  2210000 ----- CPU =    774.6052 (sec) ----------------
Time     = 11050000.000000 Temp     = 236.833442 Press    = 1414.798898 
PotEng   = -10.290352 KinEng   = 0.704577 Lx       = 24.792302 
Ly       = 24.792302 Lz       = 24.792302 Density  = 1.005102 
Volume   = 15238.793154 
---------------- Step  2220000 ----- CPU =    780.9486 (sec) ----------------
Time     = 11100000.000000 Temp     = 244.097230 Press    = 508.227244 
PotEng   = -10.282724 KinEng   = 0.726186 Lx       = 24.708908 
Ly       = 24.708908 Lz       = 24.708908 Density  = 1.015313 
Volume   = 15085.533120 
---------------- Step  2230000 ----- CPU =    787.3539 (sec) ----------------
Time     = 11150000.000000 Temp     = 268.323508 Press    = 168.946874 
PotEng   = -10.230707 KinEng   = 0.798259 Lx       = 24.769025 
Ly       = 24.769025 Lz       = 24.769025 Density  = 1.007938 
Volume   = 15195.911233 
---------------- Step  2240000 ----- CPU =    793.7743 (sec) ----------------
Time     = 11200000.000000 Temp     = 277.300016 Press    = -315.551178 
PotEng   = -10.306838 KinEng   = 0.824964 Lx       = 24.857037 
Ly       = 24.857037 Lz       = 24.857037 Density  = 0.997269 
Volume   = 15358.474085 
---------------- Step  2250000 ----- CPU =    800.1531 (sec) ----------------
Time     = 11250000.000000 Temp     = 264.788572 Press    = 966.370198 
PotEng   = -10.244938 KinEng   = 0.787743 Lx       = 24.777651 
Ly       = 24.777651 Lz       = 24.777651 Density  = 1.006886 
Volume   = 15211.791730 
---------------- Step  2260000 ----- CPU =    806.5302 (sec) ----------------
Time     = 11300000.000000 Temp     = 265.976951 Press    = 82.700280 
PotEng   = -10.260550 KinEng   = 0.791278 Lx       = 24.737935 
Ly       = 24.737935 Lz       = 24.737935 Density  = 1.011743 
Volume   = 15138.760779 
---------------- Step  2270000 ----- CPU =    812.9243 (sec) ----------------
Time     = 11350000.000000 Temp     = 267.207579 Press    = -887.433949 
PotEng   = -10.236604 KinEng   = 0.794939 Lx       = 24.885713 
Ly       = 24.885713 Lz       = 24.885713 Density  = 0.993826 
Volume   = 15411.689399 
---------------- Step  2280000 ----- CPU =    819.3172 (sec) ----------------
Time     = 11400000.000000 Temp     = 277.717447 Press    = -293.165056 
PotEng   = -10.261792 KinEng   = 0.826206 Lx       = 24.802148 
Ly       = 24.802148 Lz       = 24.802148 Density  = 1.003905 
Volume   = 15256.955483 
---------------- Step  2290000 ----- CPU =    825.7208 (sec) ----------------
Time     = 11450000.000000 Temp     = 236.724493 Press    = 605.085170 
PotEng   = -10.337665 KinEng   = 0.704253 Lx       = 24.760580 
Ly       = 24.760580 Lz       = 24.760580 Density  = 1.008970 
Volume   = 15180.373627 
---------------- Step  2300000 ----- CPU =    832.1522 (sec) ----------------
Time     = 11500000.000000 Temp     = 261.483996 Press    = -1458.359263 
PotEng   = -10.282109 KinEng   = 0.777912 Lx       = 24.865196 
Ly       = 24.865196 Lz       = 24.865196 Density  = 0.996288 
Volume   = 15373.602084 
---------------- Step  2310000 ----- CPU =    838.5054 (sec) ----------------
Time     = 11550000.000000 Temp     = 262.041362 Press    = 1485.003684 
PotEng   = -10.301175 KinEng   = 0.779570 Lx       = 24.695323 
Ly       = 24.695323 Lz       = 24.695323 Density  = 1.016989 
Volume   = 15060.664780 
---------------- Step  2320000 ----- CPU =    844.9146 (sec) ----------------
Time     = 11600000.000000 Temp     = 252.556277 Press    = 629.326476 
PotEng   = -10.324439 KinEng   = 0.751352 Lx       = 24.802400 
Ly       = 24.802400 Lz       = 24.802400 Density  = 1.003874 
Volume   = 15257.420682 
---------------- Step  2330000 ----- CPU =    851.2657 (sec) ----------------
Time     = 11650000.000000 Temp     = 266.956078 Press    = -240.639210 
PotEng   = -10.313369 KinEng   = 0.794191 Lx       = 24.728570 
Ly       = 24.728570 Lz       = 24.728570 Density  = 1.012893 
Volume   = 15121.573451 
---------------- Step  2340000 ----- CPU =    857.6645 (sec) ----------------
Time     = 11700000.000000 Temp     = 265.029565 Press    = 6.210002 
PotEng   = -10.287879 KinEng   = 0.788460 Lx       = 24.880063 
Ly       = 24.880063 Lz       = 24.880063 Density  = 0.994503 
Volume   = 15401.195502 
---------------- Step  2350000 ----- CPU =    864.0449 (sec) ----------------
Time     = 11750000.000000 Temp     = 283.222101 Press    = 539.692485 
PotEng   = -10.355478 KinEng   = 0.842582 Lx       = 24.742377 
Ly       = 24.742377 Lz       = 24.742377 Density  = 1.011198 
Volume   = 15146.917301 
---------------- Step  2360000 ----- CPU =    870.4260 (sec) ----------------
Time     = 11800000.000000 Temp     = 259.335713 Press    = 228.838077 
PotEng   = -10.318355 KinEng   = 0.771521 Lx       = 24.848163 
Ly       = 24.848163 Lz       = 24.848163 Density  = 0.998338 
Volume   = 15342.031065 
---------------- Step  2370000 ----- CPU =    876.8086 (sec) ----------------
Time     = 11850000.000000 Temp     = 263.547753 Press    = -681.732591 
PotEng   = -10.325614 KinEng   = 0.784051 Lx       = 24.885699 
Ly       = 24.885699 Lz       = 24.885699 Density  = 0.993827 
Volume   = 15411.663442 
---------------- Step  2380000 ----- CPU =    883.1989 (sec) ----------------
Time     = 11900000.000000 Temp     = 251.238396 Press    = 725.354437 
PotEng   = -10.231790 KinEng   = 0.747431 Lx       = 24.779963 
Ly       = 24.779963 Lz       = 24.779963 Density  = 1.006604 
Volume   = 15216.051389 
---------------- Step  2390000 ----- CPU =    889.5779 (sec) ----------------
Time     = 11950000.000000 Temp     = 252.815233 Press    = -62.745749 
PotEng   = -10.291792 KinEng   = 0.752122 Lx       = 24.827362 
Ly       = 24.827362 Lz       = 24.827362 Density  = 1.000849 
Volume   = 15303.534348 
---------------- Step  2400000 ----- CPU =    895.9941 (sec) ----------------
Time     = 12000000.000000 Temp     = 263.764717 Press    = 244.080211 
PotEng   = -10.307119 KinEng   = 0.784697 Lx       = 24.834073 
Ly       = 24.834073 Lz       = 24.834073 Density  = 1.000038 
Volume   = 15315.946533 
---------------- Step  2410000 ----- CPU =    902.4301 (sec) ----------------
Time     = 12050000.000000 Temp     = 249.499139 Press    = -78.933891 
PotEng   = -10.249358 KinEng   = 0.742257 Lx       = 24.732515 
Ly       = 24.732515 Lz       = 24.732515 Density  = 1.012408 
Volume   = 15128.812526 
---------------- Step  2420000 ----- CPU =    908.8330 (sec) ----------------
Time     = 12100000.000000 Temp     = 257.017677 Press    = -326.238744 
PotEng   = -10.326412 KinEng   = 0.764625 Lx       = 24.814067 
Ly       = 24.814067 Lz       = 24.814067 Density  = 1.002459 
Volume   = 15278.962914 
---------------- Step  2430000 ----- CPU =    915.2373 (sec) ----------------
Time     = 12150000.000000 Temp     = 255.496986 Press    = 146.019836 
PotEng   = -10.241214 KinEng   = 0.760101 Lx       = 24.771396 
Ly       = 24.771396 Lz       = 24.771396 Density  = 1.007648 
Volume   = 15200.275466 
---------------- Step  2440000 ----- CPU =    921.6434 (sec) ----------------
Time     = 12200000.000000 Temp     = 254.741764 Press    = -109.105317 
PotEng   = -10.233821 KinEng   = 0.757854 Lx       = 24.700319 
Ly       = 24.700319 Lz       = 24.700319 Density  = 1.016372 
Volume   = 15069.807646 
---------------- Step  2450000 ----- CPU =    928.1015 (sec) ----------------
Time     = 12250000.000000 Temp     = 261.973705 Press    = -654.719351 
PotEng   = -10.254689 KinEng   = 0.779369 Lx       = 24.810813 
Ly       = 24.810813 Lz       = 24.810813 Density  = 1.002854 
Volume   = 15272.951494 
---------------- Step  2460000 ----- CPU =    934.4497 (sec) ----------------
Time     = 12300000.000000 Temp     = 263.237384 Press    = 509.340120 
PotEng   = -10.281224 KinEng   = 0.783128 Lx       = 24.781892 
Ly       = 24.781892 Lz       = 24.781892 Density  = 1.006369 
Volume   = 15219.605330 
---------------- Step  2470000 ----- CPU =    940.8651 (sec) ----------------
Time     = 12350000.000000 Temp     = 260.070413 Press    = -764.479530 
PotEng   = -10.256204 KinEng   = 0.773706 Lx       = 24.885760 
Ly       = 24.885760 Lz       = 24.885760 Density  = 0.993820 
Volume   = 15411.778218 
---------------- Step  2480000 ----- CPU =    947.2860 (sec) ----------------
Time     = 12400000.000000 Temp     = 268.892918 Press    = -247.484758 
PotEng   = -10.298992 KinEng   = 0.799953 Lx       = 24.930000 
Ly       = 24.930000 Lz       = 24.930000 Density  = 0.988539 
Volume   = 15494.116542 
---------------- Step  2490000 ----- CPU =    953.6893 (sec) ----------------
Time     = 12450000.000000 Temp     = 275.764680 Press    = 818.132391 
PotEng   = -10.276004 KinEng   = 0.820397 Lx       = 24.781027 
Ly       = 24.781027 Lz       = 24.781027 Density  = 1.006474 
Volume   = 15218.011238 
---------------- Step  2500000 ----- CPU =    960.0667 (sec) ----------------
Time     = 12500000.000000 Temp     = 274.256910 Press    = -278.442179 
PotEng   = -10.272862 KinEng   = 0.815911 Lx       = 24.801033 
Ly       = 24.801033 Lz       = 24.801033 Density  = 1.004040 
Volume   = 15254.897704 
---------------- Step  2510000 ----- CPU =    966.3809 (sec) ----------------
Time     = 12550000.000000 Temp     = 261.652887 Press    = -486.017456 
PotEng   = -10.248613 KinEng   = 0.778414 Lx       = 24.783780 
Ly       = 24.783780 Lz       = 24.783780 Density  = 1.006139 
Volume   = 15223.083890 
---------------- Step  2520000 ----- CPU =    972.7861 (sec) ----------------
Time     = 12600000.000000 Temp     = 253.111248 Press    = 1186.236604 
PotEng   = -10.238869 KinEng   = 0.753003 Lx       = 24.762024 
Ly       = 24.762024 Lz       = 24.762024 Density  = 1.008793 
Volume   = 15183.029012 
---------------- Step  2530000 ----- CPU =    979.1841 (sec) ----------------
Time     = 12650000.000000 Temp     = 260.123638 Press    = 497.715937 
PotEng   = -10.255255 KinEng   = 0.773865 Lx       = 24.743147 
Ly       = 24.743147 Lz       = 24.743147 Density  = 1.011104 
Volume   = 15148.331594 
---------------- Step  2540000 ----- CPU =    985.5924 (sec) ----------------
Time     = 12700000.000000 Temp     = 243.173837 Press    = 651.392438 
PotEng   = -10.260572 KinEng   = 0.723439 Lx       = 24.805437 
Ly       = 24.805437 Lz       = 24.805437 Density  = 1.003506 
Volume   = 15263.025986 
---------------- Step  2550000 ----- CPU =    992.0193 (sec) ----------------
Time     = 12750000.000000 Temp     = 254.800679 Press    = -275.514571 
PotEng   = -10.316150 KinEng   = 0.758029 Lx       = 24.731676 
Ly       = 24.731676 Lz       = 24.731676 Density  = 1.012511 
Volume   = 15127.272675 
---------------- Step  2560000 ----- CPU =    998.4203 (sec) ----------------
Time     = 12800000.000000 Temp     = 264.017944 Press    = -73.258413 
PotEng   = -10.278316 KinEng   = 0.785450 Lx       = 24.849962 
Ly       = 24.849962 Lz       = 24.849962 Density  = 0.998121 
Volume   = 15345.363886 
---------------- Step  2570000 ----- CPU =   1004.8386 (sec) ----------------
Time     = 12850000.000000 Temp     = 263.687317 Press    = 36.752262 
PotEng   = -10.191494 KinEng   = 0.784467 Lx       = 24.783998 
Ly       = 24.783998 Lz       = 24.783998 Density  = 1.006112 
Volume   = 15223.486263 
---------------- Step  2580000 ----- CPU =   1011.2744 (sec) ----------------
Time     = 12900000.000000 Temp     = 259.643348 Press    = 413.861074 
PotEng   = -10.238422 KinEng   = 0.772436 Lx       = 24.739756 
Ly       = 24.739756 Lz       = 24.739756 Density  = 1.011520 
Volume   = 15142.104429 
---------------- Step  2590000 ----- CPU =   1017.6573 (sec) ----------------
Time     = 12950000.000000 Temp     = 277.674403 Press    = 440.943136 
PotEng   = -10.284790 KinEng   = 0.826078 Lx       = 24.705427 
Ly       = 24.705427 Lz       = 24.705427 Density  = 1.015742 
Volume   = 15079.158231 
---------------- Step  2600000 ----- CPU =   1024.0648 (sec) ----------------
Time     = 13000000.000000 Temp     = 267.483474 Press    = 47.332177 
PotEng   = -10.234876 KinEng   = 0.795760 Lx       = 24.844320 
Ly       = 24.844320 Lz       = 24.844320 Density  = 0.998801 
Volume   = 15334.914047 
---------------- Step  2610000 ----- CPU =   1030.4611 (sec) ----------------
Time     = 13050000.000000 Temp     = 256.537575 Press    = -179.647297 
PotEng   = -10.285181 KinEng   = 0.763196 Lx       = 24.811845 
Ly       = 24.811845 Lz       = 24.811845 Density  = 1.002728 
Volume   = 15274.858019 
---------------- Step  2620000 ----- CPU =   1036.8853 (sec) ----------------
Time     = 13100000.000000 Temp     = 240.136952 Press    = -488.988969 
PotEng   = -10.153069 KinEng   = 0.714405 Lx       = 24.913745 
Ly       = 24.913745 Lz       = 24.913745 Density  = 0.990475 
Volume   = 15463.829763 
---------------- Step  2630000 ----- CPU =   1043.2811 (sec) ----------------
Time     = 13150000.000000 Temp     = 255.253365 Press    = -547.265608 
PotEng   = -10.241285 KinEng   = 0.759376 Lx       = 24.809339 
Ly       = 24.809339 Lz       = 24.809339 Density  = 1.003032 
Volume   = 15270.230615 
---------------- Step  2640000 ----- CPU =   1049.6754 (sec) ----------------
Time     = 13200000.000000 Temp     = 259.829470 Press    = 1093.015989 
PotEng   = -10.261846 KinEng   = 0.772990 Lx       = 24.747155 
Ly       = 24.747155 Lz       = 24.747155 Density  = 1.010613 
Volume   = 15155.693924 
---------------- Step  2650000 ----- CPU =   1056.0267 (sec) ----------------
Time     = 13250000.000000 Temp     = 264.740705 Press    = -1010.114015 
PotEng   = -10.251681 KinEng   = 0.787600 Lx       = 24.892889 
Ly       = 24.892889 Lz       = 24.892889 Density  = 0.992967 
Volume   = 15425.026492 
---------------- Step  2660000 ----- CPU =   1062.3788 (sec) ----------------
Time     = 13300000.000000 Temp     = 260.756888 Press    = -555.074748 
PotEng   = -10.287273 KinEng   = 0.775749 Lx       = 24.811686 
Ly       = 24.811686 Lz       = 24.811686 Density  = 1.002748 
Volume   = 15274.563797 
---------------- Step  2670000 ----- CPU =   1068.7496 (sec) ----------------
Time     = 13350000.000000 Temp     = 254.156522 Press    = 205.478303 
PotEng   = -10.284254 KinEng   = 0.756113 Lx       = 24.888255 
Ly       = 24.888255 Lz       = 24.888255 Density  = 0.993521 
Volume   = 15416.413730 
---------------- Step  2680000 ----- CPU =   1075.1586 (sec) ----------------
Time     = 13400000.000000 Temp     = 247.704448 Press    = 21.783084 
PotEng   = -10.341060 KinEng   = 0.736918 Lx       = 24.768907 
Ly       = 24.768907 Lz       = 24.768907 Density  = 1.007952 
Volume   = 15195.692866 
---------------- Step  2690000 ----- CPU =   1081.5325 (sec) ----------------
Time     = 13450000.000000 Temp     = 238.423044 Press    = -692.102995 
PotEng   = -10.257101 KinEng   = 0.709306 Lx       = 24.756096 
Ly       = 24.756096 Lz       = 24.756096 Density  = 1.009518 
Volume   = 15172.128088 
---------------- Step  2700000 ----- CPU =   1087.9095 (sec) ----------------
Time     = 13500000.000000 Temp     = 268.962870 Press    = 207.180170 
PotEng   = -10.257617 KinEng   = 0.800161 Lx       = 24.783903 
Ly       = 24.783903 Lz       = 24.783903 Density  = 1.006124 
Volume   = 15223.310887 
---------------- Step  2710000 ----- CPU =   1094.2745 (sec) ----------------
Time     = 13550000.000000 Temp     = 247.322162 Press    = 1129.834341 
PotEng   = -10.271339 KinEng   = 0.735781 Lx       = 24.770708 
Ly       = 24.770708 Lz       = 24.770708 Density  = 1.007732 
Volume   = 15199.008805 
---------------- Step  2720000 ----- CPU =   1100.6529 (sec) ----------------
Time     = 13600000.000000 Temp     = 264.931745 Press    = 896.234819 
PotEng   = -10.306307 KinEng   = 0.788169 Lx       = 24.724427 
Ly       = 24.724427 Lz       = 24.724427 Density  = 1.013402 
Volume   = 15113.976059 
---------------- Step  2730000 ----- CPU =   1107.1073 (sec) ----------------
Time     = 13650000.000000 Temp     = 272.681929 Press    = 126.300457 
PotEng   = -10.310915 KinEng   = 0.811226 Lx       = 24.722202 
Ly       = 24.722202 Lz       = 24.722202 Density  = 1.013676 
Volume   = 15109.895473 
---------------- Step  2740000 ----- CPU =   1113.4792 (sec) ----------------
Time     = 13700000.000000 Temp     = 253.940335 Press    = -974.267812 
PotEng   = -10.247764 KinEng   = 0.755469 Lx       = 24.942713 
Ly       = 24.942713 Lz       = 24.942713 Density  = 0.987028 
Volume   = 15517.831995 
---------------- Step  2750000 ----- CPU =   1119.8956 (sec) ----------------
Time     = 13750000.000000 Temp     = 254.877690 Press    = 122.695397 
PotEng   = -10.276478 KinEng   = 0.758258 Lx       = 24.792136 
Ly       = 24.792136 Lz       = 24.792136 Density  = 1.005122 
Volume   = 15238.486480 
---------------- Step  2760000 ----- CPU =   1126.3310 (sec) ----------------
Time     = 13800000.000000 Temp     = 268.826874 Press    = -201.206432 
PotEng   = -10.249327 KinEng   = 0.799757 Lx       = 24.772296 
Ly       = 24.772296 Lz       = 24.772296 Density  = 1.007539 
Volume   = 15201.931915 
---------------- Step  2770000 ----- CPU =   1132.7293 (sec) ----------------
Time     = 13850000.000000 Temp     = 263.554247 Press    = -222.384252 
PotEng   = -10.196290 KinEng   = 0.784071 Lx       = 24.840853 
Ly       = 24.840853 Lz       = 24.840853 Density  = 0.999220 
Volume   = 15328.495004 
---------------- Step  2780000 ----- CPU =   1139.1315 (sec) ----------------
Time     = 13900000.000000 Temp     = 256.164010 Press    = -858.472849 
PotEng   = -10.263027 KinEng   = 0.762085 Lx       = 24.809723 
Ly       = 24.809723 Lz       = 24.809723 Density  = 1.002986 
Volume   = 15270.939647 
---------------- Step  2790000 ----- CPU =   1145.5678 (sec) ----------------
Time     = 13950000.000000 Temp     = 249.109845 Press    = 564.330487 
PotEng   = -10.260567 KinEng   = 0.741099 Lx       = 24.705620 
Ly       = 24.705620 Lz       = 24.705620 Density  = 1.015718 
Volume   = 15079.512081 
---------------- Step  2800000 ----- CPU =   1151.9706 (sec) ----------------
Time     = 14000000.000000 Temp     = 255.921762 Press    = 188.196244 
PotEng   = -10.286664 KinEng   = 0.761364 Lx       = 24.877028 
Ly       = 24.877028 Lz       = 24.877028 Density  = 0.994867 
Volume   = 15395.560430 
---------------- Step  2810000 ----- CPU =   1158.3476 (sec) ----------------
Time     = 14050000.000000 Temp     = 243.308076 Press    = -1113.247700 
PotEng   = -10.246769 KinEng   = 0.723839 Lx       = 24.789952 
Ly       = 24.789952 Lz       = 24.789952 Density  = 1.005387 
Volume   = 15234.459291 
---------------- Step  2820000 ----- CPU =   1164.7901 (sec) ----------------
Time     = 14100000.000000 Temp     = 251.482913 Press    = -351.900957 
PotEng   = -10.259182 KinEng   = 0.748159 Lx       = 24.771200 
Ly       = 24.771200 Lz       = 24.771200 Density  = 1.007672 
Volume   = 15199.914076 
---------------- Step  2830000 ----- CPU =   1171.1681 (sec) ----------------
Time     = 14150000.000000 Temp     = 259.817459 Press    = -67.430690 
PotEng   = -10.295096 KinEng   = 0.772954 Lx       = 24.879850 
Ly       = 24.879850 Lz       = 24.879850 Density  = 0.994529 
Volume   = 15400.800124 
---------------- Step  2840000 ----- CPU =   1177.5282 (sec) ----------------
Time     = 14200000.000000 Temp     = 285.708246 Press    = 325.689472 
PotEng   = -10.278687 KinEng   = 0.849979 Lx       = 24.757313 
Ly       = 24.757313 Lz       = 24.757313 Density  = 1.009369 
Volume   = 15174.364778 
---------------- Step  2850000 ----- CPU =   1183.9143 (sec) ----------------
Time     = 14250000.000000 Temp     = 261.674250 Press    = -385.111104 
PotEng   = -10.319296 KinEng   = 0.778478 Lx       = 24.921167 
Ly       = 24.921167 Lz       = 24.921167 Density  = 0.989590 
Volume   = 15477.653407 
---------------- Step  2860000 ----- CPU =   1190.3085 (sec) ----------------
Time     = 14300000.000000 Temp     = 252.142576 Press    = -159.450954 
PotEng   = -10.283227 KinEng   = 0.750121 Lx       = 24.791405 
Ly       = 24.791405 Lz       = 24.791405 Density  = 1.005211 
Volume   = 15237.138164 
---------------- Step  2870000 ----- CPU =   1196.7117 (sec) ----------------
Time     = 14350000.000000 Temp     = 278.901612 Press    = 122.460267 
PotEng   = -10.236678 KinEng   = 0.829729 Lx       = 24.752923 
Ly       = 24.752923 Lz       = 24.752923 Density  = 1.009906 
Volume   = 15166.293189 
---------------- Step  2880000 ----- CPU =   1203.1246 (sec) ----------------
Time     = 14400000.000000 Temp     = 266.237158 Press    = -110.542418 
PotEng   = -10.269007 KinEng   = 0.792052 Lx       = 24.826652 
Ly       = 24.826652 Lz       = 24.826652 Density  = 1.000935 
Volume   = 15302.220954 
---------------- Step  2890000 ----- CPU =   1209.5268 (sec) ----------------
Time     = 14450000.000000 Temp     = 246.094585 Press    = 539.964939 
PotEng   = -10.379752 KinEng   = 0.732128 Lx       = 24.781556 
Ly       = 24.781556 Lz       = 24.781556 Density  = 1.006410 
Volume   = 15218.986423 
---------------- Step  2900000 ----- CPU =   1215.9552 (sec) ----------------
Time     = 14500000.000000 Temp     = 262.447127 Press    = 662.598176 
PotEng   = -10.293572 KinEng   = 0.780777 Lx       = 24.800973 
Ly       = 24.800973 Lz       = 24.800973 Density  = 1.004048 
Volume   = 15254.788265 
---------------- Step  2910000 ----- CPU =   1222.3732 (sec) ----------------
Time     = 14550000.000000 Temp     = 263.823057 Press    = 257.987597 
PotEng   = -10.292133 KinEng   = 0.784870 Lx       = 24.825002 
Ly       = 24.825002 Lz       = 24.825002 Density  = 1.001135 
Volume   = 15299.170537 
---------------- Step  2920000 ----- CPU =   1228.7129 (sec) ----------------
Time     = 14600000.000000 Temp     = 237.600155 Press    = -840.234667 
PotEng   = -10.333630 KinEng   = 0.706858 Lx       = 24.838303 
Ly       = 24.838303 Lz       = 24.838303 Density  = 0.999528 
Volume   = 15323.774178 
---------------- Step  2930000 ----- CPU =   1235.1728 (sec) ----------------
Time     = 14650000.000000 Temp     = 263.321160 Press    = 399.848629 
PotEng   = -10.408514 KinEng   = 0.783377 Lx       = 24.791099 
Ly       = 24.791099 Lz       = 24.791099 Density  = 1.005248 
Volume   = 15236.574289 
---------------- Step  2940000 ----- CPU =   1241.5663 (sec) ----------------
Time     = 14700000.000000 Temp     = 267.170600 Press    = -656.388889 
PotEng   = -10.276028 KinEng   = 0.794829 Lx       = 24.820223 
Ly       = 24.820223 Lz       = 24.820223 Density  = 1.001713 
Volume   = 15290.337047 
---------------- Step  2950000 ----- CPU =   1247.9844 (sec) ----------------
Time     = 14750000.000000 Temp     = 264.287117 Press    = 552.941661 
PotEng   = -10.310115 KinEng   = 0.786251 Lx       = 24.761714 
Ly       = 24.761714 Lz       = 24.761714 Density  = 1.008831 
Volume   = 15182.459368 
---------------- Step  2960000 ----- CPU =   1254.3565 (sec) ----------------
Time     = 14800000.000000 Temp     = 271.762187 Press    = 26.616085 
PotEng   = -10.290173 KinEng   = 0.808489 Lx       = 24.813331 
Ly       = 24.813331 Lz       = 24.813331 Density  = 1.002548 
Volume   = 15277.602884 
---------------- Step  2970000 ----- CPU =   1260.7055 (sec) ----------------
Time     = 14850000.000000 Temp     = 274.878563 Press    = 722.805820 
PotEng   = -10.316578 KinEng   = 0.817760 Lx       = 24.738143 
Ly       = 24.738143 Lz       = 24.738143 Density  = 1.011717 
Volume   = 15139.143757 
---------------- Step  2980000 ----- CPU =   1267.1124 (sec) ----------------
Time     = 14900000.000000 Temp     = 274.165857 Press    = -9.780449 
PotEng   = -10.232086 KinEng   = 0.815640 Lx       = 24.867277 
Ly       = 24.867277 Lz       = 24.867277 Density  = 0.996038 
Volume   = 15377.464018 
---------------- Step  2990000 ----- CPU =   1273.5408 (sec) ----------------
Time     = 14950000.000000 Temp     = 237.100420 Press    = -394.584212 
PotEng   = -10.224448 KinEng   = 0.705371 Lx       = 24.877945 
Ly       = 24.877945 Lz       = 24.877945 Density  = 0.994757 
Volume   = 15397.261641 
---------------- Step  3000000 ----- CPU =   1279.9543 (sec) ----------------
Time     = 15000000.000000 Temp     = 254.723358 Press    = -81.096386 
PotEng   = -10.275584 KinEng   = 0.757799 Lx       = 24.820052 
Ly       = 24.820052 Lz       = 24.820052 Density  = 1.001734 
Volume   = 15290.020409 
Loop time of 1279.95 on 6 procs for 2000000 steps with 512 atoms

Performance: 675.024 ns/day, 0.036 hours/ns, 1562.556 timesteps/s
97.0% CPU use with 6 MPI tasks x no OpenMP threads

MPI task timing breakdown:
Section |  min time  |  avg time  |  max time  |%varavg| %total
---------------------------------------------------------------
Pair    | 1070.7     | 1078.8     | 1091.1     |  21.8 | 84.28
Neigh   | 30.151     | 30.257     | 30.515     |   2.2 |  2.36
Comm    | 130.92     | 143.16     | 151.01     |  58.5 | 11.18
Output  | 0.0061352  | 0.0099274  | 0.028566   |   8.4 |  0.00
Modify  | 22.319     | 22.731     | 23.047     |   4.8 |  1.78
Other   |            | 4.995      |            |       |  0.39

Nlocal:    85.3333 ave 88 max 83 min
Histogram: 1 0 1 0 1 0 2 0 0 1
Nghost:    573.333 ave 585 max 568 min
Histogram: 2 1 1 0 1 0 0 0 0 1
Neighs:    0 ave 0 max 0 min
Histogram: 6 0 0 0 0 0 0 0 0 0
FullNghs:  2868.67 ave 2998 max 2764 min
Histogram: 1 1 0 0 1 2 0 0 0 1

Total # of neighbors = 17212
Ave neighs/atom = 33.6172
Neighbor list builds = 120189
Dangerous builds = 0
System init for write_data ...
Total wall time: 0:31:59
