LAMMPS data file via write_data, version 4 Jan 2019, timestep = 3000000

512 atoms
1 atom types

-9.7747606068665505e-03 2.4844774760613948e+01 xlo xhi
-9.7747606068665505e-03 2.4844774760613948e+01 ylo yhi
-9.7747606068665505e-03 2.4844774760613948e+01 zlo zhi

Masses

1 18.0153

Atoms # atomic

181 1 1.1088021335232041e+01 5.9036016346290392e+00 7.2205834712818646e+00 72 65 -62
116 1 7.3849348597166198e-01 5.6214639849287540e+00 6.4375710166756779e+00 -43 2 1
104 1 6.0191275686335812e+00 3.4357950221952791e+00 4.0541870144070771e+00 79 18 -14
366 1 1.0444335577383207e+01 9.3462782486431983e+00 3.5737656646011935e+00 161 0 -52
141 1 2.3650069616071427e+01 6.9287211504229553e+00 3.4202257770953644e+00 93 75 -5
146 1 1.4815585294832792e+01 2.2943002196224715e+00 6.2672592876442590e-01 -21 -3 9
195 1 1.3954215248694576e+01 2.9962095125565891e+00 5.0260667666530283e+00 -16 -2 72
427 1 1.6541313967923500e+01 9.9361496518235377e+00 1.9716348055533239e+00 123 -27 31
389 1 2.0854769826013317e+01 1.1846141347769969e+01 4.6569104135796885e-01 9 75 -15
155 1 2.0949807127940346e+01 5.7162924777010442e+00 2.9121845012725589e+00 -59 26 28
41 1 1.0921474539013722e+01 6.4952184748743163e+00 3.3668727556206819e+00 64 -7 44
90 1 1.5600483998920618e+01 1.1715998289276586e+01 7.3552204003082826e+00 -48 -44 -85
495 1 1.7321657674987181e+00 7.1820056708195636e+00 4.6452939849481139e+00 -27 3 -60
413 1 2.2961035014213522e+01 6.5044162966192207e+00 7.9925147612848484e+00 -30 8 -21
269 1 1.4548099846960225e+01 9.9796614743677257e+00 5.3268851756246276e+00 24 -38 12
237 1 1.7367556242917981e+01 4.4328582524813100e+00 1.8625755563222959e+00 15 -30 -13
112 1 9.0035620068988091e+00 9.9852690373348683e+00 1.5825182189279119e-01 21 93 -37
393 1 1.2565522942729357e+01 3.9842318619485168e-01 4.9426951820130050e-01 100 41 -82
378 1 2.3626204440336952e+01 3.8702284810731746e+00 3.8215208539924004e+00 13 -20 -58
359 1 2.0966906487789139e+01 4.8799559385756019e+00 1.8228845215650785e-01 -48 49 10
257 1 1.1838027401302522e+01 9.0008534449152791e+00 7.7628574240430961e+00 -24 12 51
309 1 1.8911954528017812e+01 8.3703707970767631e+00 1.2770323143491566e+00 62 62 -48
206 1 7.5250187643562256e+00 1.1404719809274007e+00 5.0998682822586163e+00 14 -84 32
158 1 1.7941365043260223e+01 6.3821254254671311e+00 3.1773510879549751e+00 -61 58 -81
365 1 7.0514564201218004e+00 9.9550198854761582e+00 7.1004481416947165e+00 -6 82 -41
346 1 2.2875613771186536e+01 9.2762582735914467e+00 7.5255631941016130e+00 37 22 -125
177 1 7.1181958745832361e+00 6.0631278620863469e+00 2.6229005511214893e+00 -22 -39 46
285 1 2.6420837642029965e-01 2.9857043337375693e+00 5.6480769884621669e+00 -21 78 -3
245 1 3.9697403907232838e+00 7.4587644953087677e+00 6.1258276491747301e+00 -25 10 76
335 1 5.2695897564827003e+00 9.0424249586847214e+00 4.1507662922632340e+00 28 -27 92
274 1 1.6068521310660106e+01 1.1821431619420725e+01 3.6999881952030402e+00 -38 28 1
318 1 6.9073095630555397e+00 2.4177434590498330e+00 1.0628267107401834e+00 35 1 146
443 1 2.1426169763279670e+01 4.5515319497537350e+00 5.8412194980720855e+00 -109 30 -17
45 1 1.9336012291992283e+01 8.9046141227554081e+00 5.9664302062016485e+00 7 76 -86
312 1 1.1581298267550233e+01 1.0840597744891193e+01 5.4648167686467017e+00 -5 23 21
293 1 1.5562878479786084e+01 5.7087014684252813e+00 6.8315609528749004e+00 13 124 48
179 1 2.3246899428570494e+01 1.2015435164196285e+01 2.9940306461426807e+00 -80 -65 -44
381 1 2.6998527410444111e+00 1.4023287951342953e+00 5.9663769597872545e+00 27 -117 33
53 1 1.6403222152553489e+01 6.2483854141419215e-02 4.7373068744524280e+00 56 98 140
117 1 2.7530025433841692e+00 5.4120181528813571e+00 2.4805029219095549e+00 54 41 77
175 1 1.8855122239352912e+01 1.1433224128390286e+01 4.2819687760484859e+00 42 -2 -33
111 1 1.0668094982309444e+01 3.2999881102207871e+00 2.3539398935199922e+00 6 47 81
194 1 1.8256909558912159e+01 6.1876645181097993e+00 5.7886164099733932e+00 44 114 5
321 1 1.0694593924661469e+01 1.1287444993483501e+01 1.6738451096410341e+00 47 23 -79
271 1 1.9135294615016019e+01 3.7952700139882296e+00 7.0866037187652129e+00 42 21 -48
52 1 3.4196766224930322e+00 4.7070134129577195e+00 7.7082194430187219e+00 101 -86 149
367 1 1.6609955224823892e+01 8.6679582264495387e+00 7.2491759389002208e+00 16 5 58
150 1 4.4784098029016839e+00 4.0247615574864009e+00 4.5645007195880999e-01 71 -31 70
12 1 1.1443836176234605e+01 3.2461491878394768e+00 6.1815548178534030e+00 56 -42 63
102 1 1.3206240537955122e+01 1.2090845778945310e+01 5.1173445078181612e-01 30 -13 33
441 1 1.8237723408329896e+00 1.1584392856610934e+01 6.9638570462607454e+00 -1 -70 -23
85 1 8.4622119892829684e-01 9.6342105423594422e+00 5.1638707480702797e+00 11 28 -108
256 1 2.1025919854326744e+01 1.3708499812626000e+00 5.7715367738085881e+00 30 7 -42
512 1 9.2546673401216388e+00 7.4631873287971100e+00 1.2111275969715425e+00 -25 -36 101
403 1 5.4051595371244057e+00 1.1879463015897411e+01 4.1048681746981535e+00 -66 45 15
28 1 8.4533265348776876e+00 6.4184832121066027e+00 6.8123379451104755e+00 17 39 27
208 1 1.9480803604948964e+01 2.4992284995684133e+00 2.3049939227094818e+00 18 91 -11
144 1 1.3122676322264248e+01 3.4120457393276040e+00 2.3705887361981914e+00 -30 19 47
241 1 1.6871369689381019e+01 8.2859689873974407e-01 2.0561645760483009e+00 -3 -114 -15
382 1 9.3647162081073656e+00 8.7341036679900697e-01 2.9761019443255128e+00 57 -11 54
376 1 3.6432865131484391e+00 1.0214628285901828e+01 7.3602175119697943e-01 -75 -14 -10
196 1 9.0881766122102583e+00 4.2500215585295802e+00 4.6239335042514034e+00 18 18 18
56 1 1.0129474095359303e+00 1.0802586909801208e+01 2.4870590003406430e+00 -14 73 15
89 1 2.0362833784614544e+01 1.0044994811199437e+01 2.2408982592742421e+00 -7 18 -192
471 1 2.1930564882097812e+01 1.7678991597408613e+00 3.5023614652536117e+00 -85 -13 17
294 1 2.2530952530777004e+01 9.2054964719176713e+00 4.5646295121426474e+00 31 30 -79
336 1 2.3360445597615701e+01 1.4133978444922779e+00 7.0025279616635991e+00 38 -12 -111
61 1 4.9835260798925569e+00 7.6294487659560470e+00 1.5220522822195965e+00 92 -57 97
282 1 5.6738786490898194e+00 4.3973651755478071e+00 6.7301350239479785e+00 39 27 86
348 1 7.8552024201839759e+00 8.4392351793104261e+00 4.5770918473512170e+00 -5 -17 16
275 1 9.8772200481634069e+00 1.0860941196110470e+00 6.6829082057446101e+00 27 -10 29
333 1 1.2920298209362432e+01 6.3009681316574122e+00 1.2518872261815841e+00 13 43 42
344 1 3.4492814219581565e+00 8.4157703096111702e-01 4.0694803527869811e-01 34 -41 12
361 1 9.7631221904349790e+00 1.2159629936149839e+01 7.2177361903781740e+00 -58 117 3
39 1 3.3142054664713472e+00 2.4565542127857691e+00 3.0394790063959816e+00 -1 47 41
508 1 1.2837790044422080e+01 7.2750103479325556e+00 5.5628899216044623e+00 13 12 -67
467 1 2.4160620066586127e+01 6.9788514301426172e+00 8.1110158653219455e-01 -60 100 43
375 1 1.6332254581461839e+01 2.6209607471057721e+00 6.0600271186057091e+00 8 45 -115
212 1 5.8560416033561158e-01 2.5790178123464607e+00 2.0060420366098128e+00 -14 -48 -30
60 1 6.3915990886234937e+00 1.1181092476285757e+01 9.1609624589662841e-01 -66 -20 45
8 1 1.5477747174577704e+01 7.0114974704925537e+00 1.0487147698843893e+00 -45 27 -24
449 1 2.9079821113420956e+00 1.2044435400478241e+01 3.9479835830561250e+00 -57 68 24
437 1 6.6303141279868125e+00 3.6259943696228745e+00 1.3950751853440332e+01 11 10 -112
156 1 1.2881199594915044e+01 8.5665019522492680e-01 8.5602248852677842e+00 35 43 -19
258 1 2.3383603428587058e+01 1.0428569167677741e+01 1.1654137963222302e+01 118 -56 67
362 1 1.1757078581480101e+01 1.0345442787495470e+01 1.4702735152002536e+01 -58 -9 -76
254 1 1.0016713280611741e+01 6.6001350750365759e+00 1.2198590780592575e+01 33 94 40
478 1 5.0007529102692807e+00 7.1686908583106748e+00 1.0093066794103999e+01 20 -8 32
233 1 1.6947760148735642e+00 1.6772723169171622e+00 1.5567964785716129e+01 -15 -40 -35
153 1 4.0552605499269241e+00 2.2720021679166065e+00 1.4882746793769689e+01 6 -11 81
205 1 1.6565778892728783e+01 6.0550938387200057e+00 9.9800159437907041e+00 -25 -15 -59
459 1 1.2645169241823815e+01 5.3918574693083947e+00 1.3125223773869106e+01 64 -14 50
436 1 1.4318897046238002e+00 8.3606694389313674e-02 1.0204269956333137e+01 52 74 17
343 1 1.1107926567844769e+01 2.9482620627621534e+00 1.3188000332108423e+01 -71 11 148
99 1 1.5023705137115291e+01 1.3101256437291624e+00 1.1243975768033350e+01 -2 -20 52
299 1 9.9435446448409177e+00 4.7888054834861942e+00 1.0004779427286548e+01 38 26 54
338 1 2.4158937751532143e+01 7.8691215573189999e-01 1.2181180622336749e+01 4 -2 36
290 1 1.5173033882163500e+01 2.4191134388558724e+00 1.5598383292297289e+01 -11 -85 -71
296 1 1.9665804569720468e+01 1.2233858459672753e+01 9.3923027652120989e+00 -47 -105 57
300 1 1.7333021036504068e+01 1.0126692261347729e+01 1.3066100911823154e+01 -71 72 21
114 1 2.4744455853386629e+01 1.0675898811288171e+01 8.7569884536584244e+00 -13 21 -12
480 1 2.3397014088308790e+01 4.2100058713137409e+00 1.0953821918805843e+01 10 -58 60
4 1 7.0789441612824355e-01 6.8302461457088146e+00 1.0633451110239333e+01 32 -90 1
67 1 9.9629813224067494e+00 6.0684119858627641e+00 1.5147013782141844e+01 -29 -80 -21
142 1 1.6795789378028040e+01 5.7357135735022773e+00 1.2855829821479144e+01 35 14 58
363 1 3.3318159451800122e+00 5.5401829023971167e+00 1.5567869117191226e+01 -17 -27 25
243 1 7.2020627848815639e+00 5.1615785769358578e+00 9.2790157756628791e+00 14 -34 -13
10 1 5.3681497217064873e+00 9.5891636032382022e-01 1.0725084024280275e+01 -89 65 -24
207 1 1.4120976322895883e+01 9.2909848545152318e+00 1.5367313595074602e+01 37 -38 2
72 1 1.7885428085064472e+01 1.0144582867114490e+01 1.5830311362873674e+01 23 57 43
435 1 8.8418752690286606e+00 9.1786374741557708e+00 1.0900228646830751e+01 -51 -15 -10
303 1 6.8651432641313448e-01 7.3616675679462729e+00 1.3311143275681170e+01 19 7 195
230 1 3.8692397398230747e+00 8.1660580545831998e+00 1.6437111906129950e+01 7 -36 -143
457 1 6.8677657175883056e+00 2.9831559284087539e+00 1.1037932244730214e+01 -20 -33 73
330 1 7.9572938793279988e+00 4.4586591115390994e-01 1.4737489721242397e+01 -11 22 36
489 1 2.2885448676008320e+01 8.0379497467287653e+00 1.3046451421833954e+01 64 192 -43
126 1 9.6967133392484737e+00 1.1595495145178655e+01 1.2284397266173389e+01 -33 -21 -33
417 1 3.1153731850940605e+00 1.6569814879277289e+00 8.7505229927253669e+00 11 3 -30
369 1 1.4869450564467700e+01 6.7700494844936996e+00 1.4149265795697511e+01 -6 68 -6
400 1 2.1443447662297331e+01 6.0628908743902468e+00 1.0400775798011662e+01 57 15 -11
169 1 5.8896053678325189e-01 5.3400697363842902e+00 1.4829455060446881e+01 -16 39 -4
192 1 1.7221098585660936e+01 2.7915172505685648e+00 1.3170873918898709e+01 -81 70 -53
20 1 2.0235791155897338e+01 5.8591679583660061e-01 1.0304726936623513e+01 126 38 28
51 1 9.9463234087746102e+00 1.1626568519956862e+01 1.6556880068979240e+01 32 -4 -47
88 1 2.0111595183098729e+01 9.4717210357428652e+00 8.7376577064086813e+00 -21 24 64
77 1 1.7642981878295725e+01 8.5784595377092874e+00 1.0579146774045494e+01 55 -24 10
425 1 1.2272431059962106e+01 3.5411577057918371e+00 8.9442395906302874e+00 73 34 -5
295 1 2.1095109211222834e+01 4.8125775528662764e+00 1.3451641094031146e+01 -45 -14 -15
143 1 9.0624857885440202e-01 2.8676910034047625e+00 1.3411153952412377e+01 36 -6 -7
453 1 1.4111352545353485e+01 4.3190150841863080e+00 1.1016273746628448e+01 69 -2 -7
187 1 4.8371854014906068e+00 5.5428342862785804e+00 1.3372366498712301e+01 -4 29 -16
7 1 1.2871110437568548e+01 1.0039764427849178e+01 1.0201421295523076e+01 48 -1 69
248 1 3.3089093728355761e+00 3.0883901761960479e+00 1.2017092967179916e+01 -44 34 1
148 1 5.9742182815737355e+00 9.3740132793777988e+00 1.4735699454713821e+01 -45 48 71
474 1 1.9017882694176976e+01 4.9037630110912991e+00 9.5111888703691960e+00 -7 -62 -21
434 1 2.9398670108223190e+00 5.4792724873057388e+00 1.0234414919003713e+01 51 -37 -76
387 1 1.5571981882042033e+01 1.0524951727021676e+01 9.8364962169062924e+00 79 -29 127
151 1 1.9081718094983568e+01 6.6513019214906928e+00 1.3772457182468765e+01 -42 -36 -4
383 1 1.5202605647813532e+00 9.2832604490971455e+00 1.0447910627868461e+01 -46 96 -28
180 1 2.1310112335960579e+01 1.1924620885226400e+01 1.2668117390508714e+01 1 282 -27
410 1 9.2777174244592473e+00 2.2248686126533728e+00 1.0975464942286710e+01 18 144 6
370 1 9.2620442797402163e+00 8.9307509055242456e+00 8.2879718765541348e+00 -31 123 28
227 1 2.2428170158690676e+01 5.4588823078460242e+00 1.5851931325206403e+01 134 104 14
131 1 7.0653334969249677e+00 6.9641427364979531e+00 1.5026465417317025e+01 22 -28 -15
307 1 1.9994871434854986e+01 8.0561419892965525e+00 1.1636749890400862e+01 -58 106 -7
32 1 6.5229828210339864e+00 1.1122206539666763e+01 1.0039750019483073e+01 -52 101 -36
395 1 6.1140968890700833e+00 8.7408636131107187e+00 1.1841262139888713e+01 -35 43 -59
191 1 1.2147918829305000e+01 8.5673327375201360e+00 1.2407405584135885e+01 40 -10 -29
479 1 3.8159795536259598e+00 1.2132511909918133e+01 9.3823710605539272e+00 -28 -29 -48
120 1 2.2806466015479849e+01 1.5398491580649403e+00 9.9873568069511620e+00 -14 -79 68
134 1 1.2852621151077821e+01 4.2788855583510976e+00 1.6050933735351492e+01 -87 -17 18
92 1 3.2005639743777343e+00 1.0613539925111363e+01 1.2598858010291336e+01 -54 48 -109
130 1 2.4833078869090217e+00 8.8713562499007459e+00 1.4242280555073512e+01 -27 -35 11
17 1 1.9543840035527371e+01 2.7043147605009406e+00 1.4516038862332996e+01 47 23 27
64 1 1.3244922240639628e+01 1.1223835256567400e+00 1.4109289451187061e+01 -46 63 18
364 1 1.5921581997386975e+01 1.4777301723579530e+00 8.5070607041481097e+00 103 27 -6
168 1 2.1054563562526315e+01 8.3210273514035098e+00 1.5230014534379984e+01 99 -47 -53
276 1 1.8512911925895093e+01 2.4575987268470207e+00 1.0513352915149433e+01 41 162 -22
465 1 9.3067291166760473e+00 3.4791525545430391e+00 1.4911686358473316e+01 32 22 39
371 1 1.1187898985199441e+01 1.2024505292306552e+01 9.5195771831755032e+00 -83 28 -56
355 1 3.9644761339745664e+00 9.2432669125401592e+00 8.5571644212587028e+00 -28 1 70
452 1 8.8844330061029919e-01 1.0642789071123245e+01 1.5463290676415101e+01 14 -8 84
171 1 1.7962509109871732e+01 7.4433076172724348e+00 1.6521362293519356e+01 -35 43 14
139 1 5.4026195378022281e+00 1.2249237691957044e+01 1.3027233588507864e+01 -17 -2 -16
265 1 2.4238180539956030e+01 8.5211902158575548e+00 1.6337982166530999e+01 -82 -51 62
106 1 9.8807766958694021e+00 3.4793302936336818e+00 2.4416583003754088e+01 13 -11 7
218 1 2.2737249677472036e+01 7.0782068487735905e-01 2.2531633512122927e+01 -56 -12 -20
351 1 2.2893423550446517e+01 1.0842442394706683e+01 2.3635393287175560e+01 30 -26 -62
380 1 2.8918566601376838e+00 1.7871435405988536e+00 2.1767081448526017e+01 -1 94 61
491 1 7.5459411109854218e+00 2.5866442039767144e+00 1.8795180934434978e+01 -34 -31 -16
431 1 4.4371522776869536e+00 4.2082574134250352e+00 2.2759212594091753e+01 -64 -44 -29
25 1 1.3609006857657821e+01 1.0253615704509107e+01 1.8862308857850216e+01 66 -81 -51
31 1 1.1493804899040061e-01 9.6379283783353369e+00 2.4820011216359095e+01 -44 -18 120
97 1 1.9203677420964957e+00 8.4563749463455657e+00 1.8145379458923180e+01 19 60 2
428 1 7.4070506861777528e+00 8.6999929174730362e+00 2.2965544019933244e+01 60 9 -7
350 1 1.8249724623772739e+01 4.4523137819396076e-02 2.3781282657928191e+01 31 -11 35
327 1 9.0181732000952219e-01 3.0390525350510855e+00 2.3972456632620229e+01 92 3 -9
433 1 1.8068363591518921e+01 3.2267417928908158e+00 2.1527611821414173e+01 26 -57 -47
217 1 8.1399738212152499e+00 9.6666310738335604e+00 2.0620984568217132e+01 99 -44 78
373 1 1.6527351360219367e+00 7.9049594365529021e+00 2.1292213357752530e+01 55 38 -39
445 1 1.0178233081148591e+01 4.7962050930241924e+00 1.9106516336376849e+01 114 76 8
496 1 1.0639975541769441e+01 5.5207218896082577e-01 2.1043104197141709e+01 -8 -26 24
396 1 8.8994443879371552e+00 6.4399226259951901e+00 2.2255933008305242e+01 1 1 16
93 1 1.3289792567497098e+01 7.9895861070368319e+00 1.7837950993293195e+01 -40 -7 13
494 1 8.2278554977534366e+00 8.4834559225319204e+00 1.8223682108332305e+01 2 51 -80
80 1 1.1061027586781655e+01 1.1842863348958071e+01 2.3244951288065035e+01 31 51 6
54 1 1.0314490942015230e+01 2.5879272695185476e+00 1.7377496354433585e+01 7 15 53
460 1 3.1460415041394234e+00 1.1335547561651651e+01 1.9605460661110712e+01 -110 134 26
43 1 2.4769617910545779e+01 1.1757614107510204e+00 1.7757828526574386e+01 -3 -4 17
305 1 2.3930842184664215e+01 4.0576413516543832e+00 2.1245306716241821e+01 13 83 31
451 1 1.2466743567452630e+01 1.3289523840311892e+00 1.8968860836909645e+01 65 38 -21
211 1 2.1536984628296981e+01 3.3191519588876401e+00 1.9823146045470704e+01 -40 7 -22
409 1 1.5536513497290677e+01 1.1314879324132658e+01 1.7018852122450021e+01 -68 83 71
273 1 2.0147945247354848e+01 1.8949942882808786e+00 2.4581077337723883e+01 83 182 128
354 1 1.6038129126518179e+01 8.9345699435616277e-01 2.2482012701721157e+01 7 52 16
289 1 1.8448354330864657e+01 4.3660239513884607e+00 2.3967701548466412e+01 -11 -15 -47
503 1 1.5040944544299039e+01 3.1023189226534766e+00 2.0776611579971352e+01 -14 9 24
223 1 1.7399459787322463e+01 2.0426878921055547e-01 1.7509704260955019e+01 95 40 15
16 1 1.6767454841189583e+01 4.9659985684107184e+00 1.8860126537695308e+01 146 88 1
334 1 3.5966429668435524e+00 6.4558388151755253e+00 2.0221557614785915e+01 41 63 20
315 1 2.1916572316069939e+01 9.9864950996582049e+00 2.1032951451156308e+01 -70 103 78
62 1 1.4630384865649098e+01 4.4187481325909204e+00 2.3265412992414760e+01 83 -23 -53
406 1 1.3342373773355900e+01 5.6482786931812239e+00 1.9849513124893704e+01 37 146 8
147 1 2.2065187358722746e+01 7.2118155070272723e+00 2.1278747853484258e+01 -34 33 87
384 1 5.0261139226794400e+00 1.0248999296107881e+01 2.2610927438733224e+01 9 5 13
250 1 1.9899063256043572e+01 1.4093871101360664e+00 1.7270537979442569e+01 -6 23 162
331 1 1.1010330405818133e+01 1.0268997385699201e+01 2.0957181363261679e+01 37 17 -10
209 1 7.8710645409803561e+00 5.1041560349020170e+00 2.0128095657650075e+01 1 10 -44
167 1 4.9572737941696348e+00 9.4068395389151593e+00 2.0008993163288856e+01 32 -22 5
385 1 1.0528492184567554e+01 7.0682954596542906e+00 1.7593986877998727e+01 52 16 52
78 1 3.0017369553920279e+00 4.2292429480920326e+00 1.8656973432912498e+01 -5 -66 -17
493 1 1.4298918119256671e+01 1.0123891305837663e+01 2.3224204936216239e+01 -47 92 50
18 1 5.8761478926531288e+00 4.0595489111534757e+00 1.7181884150803267e+01 50 56 48
509 1 2.8314960249195238e+00 1.1929513415495292e+01 1.7123866631695680e+01 110 38 -94
157 1 6.1448632033526058e+00 6.9150305371691640e+00 1.7839439639916979e+01 -12 -18 55
261 1 2.1574491681563003e+01 7.5541386008129079e+00 2.4386937761598695e+01 5 34 -129
488 1 7.0337461105268169e+00 3.3291505067923195e+00 2.2165318840574407e+01 -25 -23 27
374 1 1.8957142390230349e+01 8.1766181114524858e+00 1.9133283372748384e+01 -8 41 -8
439 1 1.1508303387275259e+01 3.5291528280880189e+00 2.1152887389884945e+01 32 -49 -77
33 1 4.2156670555945999e+00 1.5607592133949153e+00 1.8942198029483301e+01 -91 -32 -24
159 1 2.0878159144364076e+01 5.7144492192428240e+00 1.8386056112476300e+01 -52 54 99
236 1 1.8706739554580221e+01 1.0577416729342394e+01 2.1969038462121684e+01 31 78 56
220 1 1.4327172310154427e+01 8.3210381812225496e+00 2.1431225096292721e+01 49 3 7
404 1 9.1650225659364404e-01 1.0481859190378477e+01 2.1317628610193744e+01 -20 138 52
109 1 1.5865283068266862e+01 6.9350247386907240e+00 2.3346696745897699e+01 -90 -38 -52
84 1 1.9525120887203599e+01 1.6115621564028828e+00 1.9944146777818570e+01 33 51 30
162 1 1.2179179360483460e+01 4.9369141908028089e+00 2.3772856143798251e+01 -44 7 8
30 1 7.6777766087504684e+00 4.8426504329927411e+00 2.4610704540100524e+01 -92 7 -12
13 1 1.6020174287733056e+01 1.1133664236914441e+01 2.0669117548169599e+01 138 -11 76
149 1 2.6381511329849254e+00 7.9551461843792950e+00 2.3889213079404989e+01 -62 56 0
446 1 8.5205870411289475e-01 2.6744522367398771e+00 2.0046963140007762e+01 25 28 -18
504 1 5.0204875979362729e-01 5.8757746635256805e+00 1.7740680714371241e+01 -26 -14 42
505 1 7.1761729953888471e+00 1.1087591012893776e+01 1.6952134766672682e+01 -7 29 -48
332 1 2.4225360749289308e+01 6.3930690730834900e+00 2.0231012165357750e+01 8 -22 -104
121 1 5.2275818769607412e+00 6.9258312383914173e+00 2.3263211827427256e+01 -6 1 -2
3 1 2.4277360331756022e+01 1.0371744237908233e+01 1.9237650440758475e+01 17 50 21
379 1 1.9586114027823566e+01 1.0533776382369664e+01 1.9431705959182132e+01 142 -1 71
502 1 1.1770702294432418e+01 7.2140940333393333e+00 2.2216465744442107e+01 -49 -28 -42
152 1 1.8873310489057715e+01 6.1901570285276053e+00 2.0939760850174906e+01 -55 -158 -3
244 1 1.2253700812325830e+01 8.7133648160266208e+00 2.4555781071604109e+01 -34 78 1
24 1 1.5308099017723737e+01 1.7625870456409058e+00 1.8170652739313358e+01 38 -51 67
213 1 6.4675008627761370e+00 1.2381457180680654e+01 1.9564291122925216e+01 -43 -9 18
407 1 1.0418056107784016e+01 9.8547526391442097e-01 2.3833350392407517e+01 22 -2 63
492 1 1.8578839722159078e+01 7.9159165560249027e+00 2.3111956294378984e+01 -1 -14 58
127 1 2.2628397019959102e+01 2.5177683454357833e+00 1.7246112286530469e+01 62 66 83
9 1 5.8210004324632205e+00 6.6792423670808077e-01 2.1872742507876705e+01 -42 28 14
235 1 9.1507591808869524e+00 1.6808565844073722e-01 1.7363544921718550e+01 27 -56 153
405 1 2.2783703445600029e+01 3.4538799760216889e+00 2.3292476386182383e+01 -20 -13 60
160 1 2.3404089266564370e+01 1.1692625372122359e+01 1.7000489998259990e+01 -15 38 40
475 1 6.1805983072289248e+00 7.4875344433499649e-02 2.4441875231568389e+01 15 -11 -9
444 1 2.0763207677296613e+01 1.0629827460607022e+01 1.6899573726987771e+01 3 -33 17
458 1 1.5153752524667460e+01 6.1446765963179741e+00 1.6919931593649217e+01 -36 44 -4
345 1 1.6418285520481838e+01 1.1283574926247050e+01 2.4841590050377537e+01 91 141 -14
119 1 1.5158142518046060e+00 5.7180696270519675e+00 2.4654072728853620e+01 50 71 90
339 1 1.8885741606601727e+01 4.6030238431295194e+00 1.6872393879865893e+01 26 55 0
464 1 7.6691540124899129e+00 2.1708606431123858e+01 1.2335998239980543e+00 8 21 -21
477 1 1.2590185297781531e-01 2.1080313021230694e+01 3.5888162779524317e+00 38 -3 36
498 1 8.8412303276201609e-01 2.2333701395758357e+01 1.4618704641579514e+00 32 15 6
438 1 1.7783874189361953e-01 1.8449250578048193e+01 1.2260712515241037e+00 22 -19 -55
447 1 2.0883668927865607e+01 1.6737336167843278e+01 4.8005374114579213e+00 0 -117 17
81 1 2.4103736249664647e+00 1.4334923122168370e+01 5.2015760770974904e+00 47 108 -14
481 1 2.0533553998283466e+01 1.3877419391001425e+01 2.7049557033848219e+00 38 -9 -24
57 1 7.5315106227444275e+00 1.7087279252173950e+01 2.2425129223209231e-01 -26 4 28
264 1 7.8284208283897652e+00 1.6554519775180932e+01 6.9266379796981514e+00 -116 33 43
100 1 2.4489236374177430e+01 2.4645051682967818e+01 2.0695497107821903e+00 48 -121 -28
182 1 1.7595224588963138e+01 2.2782261154272980e+01 9.9987199359208279e-01 105 57 54
291 1 1.0557776053087951e+01 2.0010924005222158e+01 3.6386448557871951e+00 34 102 74
140 1 2.0218473562400078e+01 1.7358030084410931e+01 3.0731625311710858e-01 -62 19 -5
292 1 1.8042003493946162e+01 1.6831014117104875e+01 3.6739552071709509e+00 -16 19 58
68 1 8.5535064137301706e+00 2.1497556123186985e+01 7.7166617070929622e+00 4 -15 17
394 1 5.8909435368806271e+00 1.5208123630568254e+01 1.2824078536538941e+00 -113 7 -24
216 1 1.0403198323850157e+01 1.7775785278718619e+01 5.0787198485615361e+00 -35 2 164
368 1 1.2803435937191793e+01 1.5405214272211099e+01 2.8891472789089292e+00 45 -45 44
176 1 6.8723083851019728e-01 2.3364717810532248e+01 8.0219500288786794e+00 -93 -89 -27
203 1 3.3525400830332477e+00 1.3422118993746478e+01 2.9484004984810036e-01 106 -119 73
225 1 1.8198451313806753e+01 1.2797325666546113e+01 7.1857330593962567e+00 21 86 9
132 1 1.6484595109173323e+01 1.4910629415194508e+01 6.8189564003536457e-02 -44 2 -75
82 1 3.4350738181423472e+00 2.1177984359124711e+01 1.3988505296811968e+00 -15 -2 1
246 1 4.5270944356309970e+00 1.5855678875706255e+01 6.1219477186891202e+00 70 71 116
74 1 1.8578328701743878e+01 1.5480329223479892e+01 1.5765347321800423e+00 -13 55 -19
422 1 9.0538627371192533e+00 2.1855857355337811e+01 5.2582796019711830e+00 -12 65 70
423 1 1.6178770093849966e+01 1.7972743825721722e+01 3.6056835600291204e-01 -14 5 55
472 1 3.8378401727290562e-01 1.5673672028500365e+01 3.7763169025513860e-01 36 -35 69
358 1 8.8579200403121678e+00 1.8957323019916192e+01 8.1195468816762588e+00 -17 86 31
215 1 8.3034814258951695e+00 1.8924113685102142e+01 2.2585575888919434e+00 2 -146 -52
483 1 2.4502370304712958e+01 1.5381869921180419e+01 5.3070708866429470e+00 43 56 25
113 1 8.8192659105754689e+00 2.4628083438690936e+01 5.8588520196567784e-01 -61 11 79
201 1 2.1054737233640417e+01 1.3130860383174403e+01 5.5457614815956324e+00 -100 -50 39
456 1 2.2330000564299596e+01 1.7436963637940696e+01 2.0234666333423887e+00 -25 -45 19
170 1 1.6802121293897322e+01 1.8934196163236464e+01 3.0692587448152988e+00 4 35 -16
44 1 2.1780452234640599e+01 2.1453946466256408e+01 1.8073029595442669e-01 -20 -35 96
128 1 2.5017384748994789e+00 2.2331854587829930e+01 6.4071442663775811e+00 14 3 -12
415 1 1.4036405640549964e+01 2.1489954051771505e+01 1.5374673806735191e+00 -54 -52 19
65 1 2.3474178595651448e+01 1.2636601788630241e+01 5.7514647764733340e+00 -39 77 -12
234 1 1.5762603158071187e+01 1.4586127230767755e+01 4.9584184213603830e+00 59 -15 19
46 1 4.8199635545047679e+00 1.9923685225500996e+01 5.3217151190951242e+00 44 -11 66
324 1 1.1799535155866181e+01 2.3163124826200963e+01 1.9557279276567803e+00 0 -56 80
476 1 3.8629438657383290e+00 1.6957918286141318e+01 6.0269695632106379e-01 -35 -13 -58
29 1 2.2341386870006030e+01 2.4539020872521942e+01 4.3794613621816580e-01 55 -36 -33
101 1 1.0670670835081406e+01 1.8990900912870892e+01 4.4319830331504917e-01 -26 -22 58
47 1 1.5723921592325899e+01 1.7318640950396865e+01 6.3805718446257300e+00 21 66 -104
260 1 2.3203329220199574e+01 2.3675810176801892e+01 6.9065292617170968e+00 -27 5 66
83 1 5.6364217286650655e+00 2.1332191819470967e+01 7.6776711494837970e+00 38 2 0
391 1 1.4972388403074977e+01 2.2480337678737644e+01 4.0123247751472650e+00 -76 -30 -1
136 1 2.1782726792612475e+00 2.3957279582259691e+01 4.3538313727888358e+00 44 -58 112
325 1 2.1441238994339589e+01 1.9309253444771251e+01 5.6738445345994446e+00 -88 45 29
76 1 2.2433555009798813e+00 1.5166549644464968e+01 2.4290956886081045e+00 24 14 17
377 1 1.7713963436560178e+01 2.1273756074453505e+01 3.4836392052391054e+00 21 15 -108
122 1 1.3751835675019599e+01 1.8206016671371465e+01 7.5995323986099039e-01 10 0 7
34 1 6.6401770725294629e+00 1.8023890539406114e+01 4.5887819765577831e+00 -117 -22 125
166 1 1.5636407987592458e+01 2.2615220475388558e+01 7.2131566205702864e+00 37 -10 -24
87 1 9.4162846906775641e+00 1.5324760641464147e+01 4.3860932180299663e+00 -11 34 90
69 1 2.1526397781658673e+01 1.5515267066767812e+01 7.0793466241314027e+00 -25 -1 7
66 1 6.5820021998863627e+00 1.4907893381586822e+01 4.0028371968552667e+00 -10 24 -27
247 1 2.3360747288368305e+01 1.5074327065089147e+01 2.7381724780202235e+00 20 -10 14
242 1 1.6962825728047829e+01 1.9851823759311380e+01 6.6072562373210095e+00 3 6 -54
408 1 5.7626726372752586e+00 1.3993752589667158e+01 7.8518783784830459e+00 -150 21 66
418 1 2.2462112929013993e+00 1.9568152648519437e+01 4.9667647287298546e+00 -75 -62 -17
73 1 1.4696088267303343e+01 1.4013519590684927e+01 1.9006044771063337e+00 -59 0 23
342 1 4.6619314746747733e+00 2.4168240815346007e+01 7.4107518348826487e+00 34 -3 17
199 1 1.3147011245397318e+01 1.6943610799110367e+01 5.0012410369137115e+00 31 69 -22
91 1 6.5252433964443437e+00 2.1960756804061905e+01 4.0564492255801561e+00 -24 11 27
259 1 2.0045992017015440e+01 2.2481575937836006e+01 4.1675119060806276e+00 -3 48 31
419 1 1.1277311588947363e+01 1.3196182656488617e+01 3.6650930297624882e+00 50 6 12
281 1 1.4069744453196467e+01 1.9116009896020739e+01 3.4003971684222143e+00 41 -37 105
110 1 2.7548186179315999e+00 1.8497073702280780e+01 2.4918728156793359e+00 27 -32 -30
2 1 1.0487249451037210e+01 2.4187228251630248e+01 4.8794601987828967e+00 -39 3 -9
416 1 1.2572573416576377e+01 2.1605891984993370e+01 5.4662854754476689e+00 3 -39 26
347 1 2.2109013814496006e+01 2.0314500465101428e+01 3.0041003843421494e+00 -117 1 -8
164 1 2.2696822316232431e+01 2.3570386191232142e+01 4.2825525493862742e+00 45 14 138
154 1 9.9103713615930422e-01 1.7997203889948086e+01 6.3643556340851912e+00 115 -25 9
349 1 1.3681141300162537e+01 1.9767115321881185e+01 7.1671089444072900e+00 -5 26 52
412 1 2.0004373095707230e+01 2.4088330942683999e+01 1.8609425199681802e+00 -23 24 -59
125 1 1.9225699037719146e+01 2.0621487378577243e+01 1.6266228405562036e-01 -46 -44 -7
95 1 1.1278992345705783e+01 1.4553361217029511e+01 6.6520280207843339e+00 60 139 5
360 1 1.4082012361278190e+01 1.3835127346037066e+01 7.6458197224521118e+00 -106 -51 72
193 1 5.5191525296233186e+00 2.4235443045633236e+01 4.9301401916151946e+00 -78 29 -5
399 1 1.9518274185458051e+01 2.1230794904281090e+01 6.7953901149454143e+00 26 60 -18
490 1 4.0962527089520133e+00 2.3863763508808841e+01 2.2909828205784057e+00 14 -84 -2
59 1 1.9085179646970207e+01 2.4418772682550991e+01 6.0433495984522816e+00 51 -87 57
189 1 1.6939896095699179e+01 1.5068967322648327e+01 8.1734701149849709e+00 110 -45 -33
442 1 1.1724430844463271e+01 1.7539228696059414e+01 8.0368974437879697e+00 15 -16 -106
240 1 2.3965723808428120e+01 1.9550804696806264e+01 7.4027929521789417e+00 -226 141 64
14 1 1.3356123748635154e+01 2.4841067149636189e+01 5.7924142327380856e+00 47 -25 40
108 1 7.3012091892960838e+00 1.2564398675546057e+01 6.3593970113736145e+00 46 -32 33
319 1 2.8556932541346542e+00 1.7109244331902925e+01 7.8232158983403721e+00 -31 -11 58
129 1 7.0457647481901171e+00 2.3966349875196727e+01 9.3852533613489300e+00 -42 -32 -85
22 1 1.3697343851030073e+00 1.6509073575247815e+01 1.0229408581039374e+01 -2 -68 73
501 1 2.2710490180563379e+01 1.3223684176930862e+01 1.4769646967636810e+01 39 -14 -4