LAMMPS data file via write_data, version 4 Jan 2019, timestep = 3000000

512 atoms
1 atom types

-2.6729760417049775e-02 2.4861729760424716e+01 xlo xhi
-2.6729760417049775e-02 2.4861729760424716e+01 ylo yhi
-2.6729760417049775e-02 2.4861729760424716e+01 zlo zhi

Masses

1 18.0153

Atoms # atomic

401 1 2.4604520692588835e+01 1.2035729410736181e+01 4.0167397296861251e+00 33 15 19
372 1 2.0449459067148538e+01 3.1297866295823709e+00 5.5792591710399773e+00 14 -9 19
482 1 7.4585040835098164e+00 4.9589137559359404e+00 3.9533151341732706e+00 7 73 37
481 1 2.2719194940302470e+00 5.4890546903958439e+00 3.3664733250151966e+00 40 -11 -15
328 1 1.1704153125079365e+01 4.2634853111519533e+00 3.6198902589859627e+00 73 85 -6
480 1 1.3626585099126450e+01 1.5486185431867296e+00 3.9764995734924424e+00 14 -62 83
377 1 1.8096760892735155e+01 8.8639553184227289e+00 6.4557214998941008e+00 16 7 -108
295 1 1.6105823034337178e+01 9.4298695268054704e+00 2.3928347736613680e+00 -38 -8 -7
426 1 3.0646745388154493e+00 1.0950479132476795e+01 6.4961135384029847e+00 84 -6 67
112 1 2.4599953530285518e+01 4.0160368715499323e-01 6.7989317085495635e+00 16 90 -37
503 1 2.3072833938840589e+01 5.5817662762353137e+00 2.6448612408738694e+00 -23 0 24
213 1 2.2821902090429994e+01 1.2398589998417796e+01 5.9671131620767257e+00 -47 -17 20
474 1 1.3708106808100949e+01 6.7311220761134987e+00 8.2140488431088183e+00 -6 -54 -33
44 1 2.1665852009329456e+01 9.5584475631773991e+00 4.1894230103194614e+00 -25 -35 98
275 1 6.0200975064613282e-01 7.2868935954168013e+00 1.5565313977427295e+00 33 -9 23
70 1 1.8451612772422926e+01 3.5540088847451994e+00 7.5572510050016612e+00 90 -2 14
43 1 1.0002284288981976e+01 1.2220530310265408e+01 2.6167386532056192e+00 -3 -10 16
494 1 1.8436450889950585e+01 5.7323690853052369e+00 2.3584587914105812e+00 -12 55 -83
245 1 2.0048171489815388e+01 1.1245928412778762e+01 6.8310554969505937e+00 -19 14 95
427 1 2.2424569131143109e+01 2.9714415151126943e+00 2.5363184519003519e+00 127 -14 26
197 1 2.4784128862287176e+01 7.5914836358396540e+00 6.8012372004577202e+00 7 41 53
496 1 2.2273402348558427e+01 1.9576813885601123e+00 7.4741724674864631e+00 -6 -25 18
183 1 7.4898196656587670e+00 6.5830278392448083e+00 6.2014486395646768e+00 34 88 22
111 1 7.8779098247256121e+00 1.0408583640477818e+01 3.3842385680240077e+00 4 46 88
155 1 1.7048871672686822e+01 5.1595182306902734e+00 4.9777563159707610e+00 -45 38 31
14 1 9.3716990726231106e+00 9.9559236649880400e+00 7.0994016947082521e+00 54 -25 30
498 1 1.2884346951003542e+01 2.7866746122486656e+00 9.2964315405633713e-01 41 9 7
321 1 1.4329848110426667e+01 6.8044683621120106e-01 6.8612998538303946e+00 42 26 -76
490 1 5.3280041597954524e+00 9.3025178410590694e+00 7.7891007336530677e-02 14 -96 0
382 1 1.0406939555460060e+01 3.3513817268357258e+00 7.8586962207695201e+00 48 -14 62
361 1 1.3351460635210033e+01 6.5955160601263207e+00 3.4441498110270099e+00 -59 109 -8
147 1 1.9947547500729456e+01 2.3467732308760247e+00 2.2635686838596820e+00 -29 30 94
173 1 7.9682250119778928e+00 2.0151677332113840e+00 4.2989368315899554e+00 45 56 2
297 1 1.3596821976523849e+01 1.0105803056691641e+01 6.4679079603439380e+00 9 34 -16
135 1 9.4726418269229384e+00 5.2374111263778209e+00 2.1887876483609170e+00 0 52 -65
96 1 2.2691572616784477e+01 5.9386503095390371e+00 5.7436990228803992e+00 239 44 64
363 1 3.4657809829618098e+00 3.8942134852049044e+00 1.0445196583374001e+00 -11 -37 15
123 1 8.4193767974956444e+00 9.3649723004256984e+00 9.2275680560329154e-01 -69 -3 0
37 1 1.9312530240096180e+01 6.5140219160408943e+00 5.8282682156013808e+00 43 23 -43
9 1 2.1858520930195425e+01 8.8478669204623834e+00 6.8748231289552848e+00 -37 29 11
161 1 4.4409578045992513e+00 1.9801336257061553e+00 5.9425283297452944e+00 30 -32 42
132 1 1.7312167711614769e+01 1.1469551522030241e+00 7.0578164370982357e+00 -46 -2 -70
215 1 5.2495908475321027e+00 9.8760968562266100e+00 2.8616009309553090e+00 5 -141 -41
442 1 1.6206347227726610e+01 1.0330065395719728e+01 4.7682286542000618e+00 22 -14 -95
40 1 3.9638111540940555e+00 7.7317824008464751e+00 4.0032479975642072e+00 -1 41 59
431 1 4.8731641974788982e+00 9.6505324985399561e+00 7.8631088160391780e+00 -62 -37 -33
259 1 2.5509067904714016e+00 3.7185388073307744e+00 6.6485941135743074e+00 -4 52 36
389 1 1.4584991684840311e+01 1.1464091957171471e+01 1.0837377661234699e+00 8 68 -18
391 1 1.1986096476991035e+01 1.0565381433169490e+01 2.0033162480787783e+00 -87 -26 -15
304 1 3.5591490217968230e-01 4.5911812751362966e+00 5.2184208558469054e+00 -21 -50 111
305 1 9.1574770738122400e+00 8.6784703452205640e+00 4.9657489814405169e+00 12 93 31
411 1 1.1834907824417536e+01 8.7684653827132291e+00 4.6166038945349994e+00 28 114 161
171 1 2.0225115586805366e+01 1.1710798253946878e+01 2.7371863850774956e+00 -46 40 17
201 1 2.3428210584350381e+01 9.5734048587642508e+00 5.7076243906222213e-01 -99 -48 34
15 1 2.4286646475283916e+01 9.4594778742935155e+00 3.5474303208829614e+00 7 -9 -136
484 1 4.7700558689658905e+00 3.7968330119606128e+00 3.8052772580891792e+00 -52 -9 90
301 1 1.5855007779412347e+00 9.0290527725036966e+00 5.0645886398739091e+00 119 26 30
429 1 8.1298589423454146e+00 9.6839724585336218e-01 1.6855872497960556e+00 -24 -34 40
312 1 2.3336714930194013e+01 2.4498440151055632e+00 -9.8092915433223328e-03 -1 13 10
412 1 1.5876620777543813e+01 6.6453509887384872e+00 1.9294078861466022e+00 -23 24 -70
436 1 1.5277221681323283e+01 3.8131468934117279e+00 1.2437918600773235e+00 47 70 32
66 1 1.7508422292002065e-01 5.2594706537341596e-01 4.3363934291645889e-01 -24 30 -29
23 1 7.6888118336455173e+00 6.6953856689869218e+00 2.2291455834147544e-01 56 31 2
92 1 1.0247894853524716e+01 2.8759458740921913e+00 5.3462858789806154e+00 -44 58 -100
208 1 2.3594861588271129e+01 1.0848590297028162e+00 4.2534514777039441e+00 29 84 -5
180 1 1.8855939012009017e+01 9.2678322009549738e+00 1.8306793949482281e+00 1 288 -25
438 1 4.8633083326395568e+00 7.5863706828539854e+00 6.4073119242031522e+00 23 -18 -51
319 1 2.0584814274351949e+01 6.9634509858603799e+00 2.9634121823862389e+00 -34 -3 47
187 1 5.3677166961149769e+00 1.5795762431916252e+00 1.7429243325715382e+00 4 27 -12
65 1 1.5919882198168480e+01 2.7748910950511250e+00 3.8104162415752341e+00 -36 70 -16
333 1 1.4835543703187509e+01 7.1003941882800019e+00 5.6834372662677515e+00 21 38 28
119 1 1.8053135924290274e+01 1.3539997662116634e+00 4.0107599893293546e+00 39 64 95
25 1 1.0911754894924083e+01 8.0042624132069751e+00 1.5206437925938925e+00 56 -79 -51
125 1 2.3050359870171995e+01 1.2226550908239366e+01 1.5208915447791214e+00 -50 -53 -20
203 1 2.2990338194369059e+01 4.6710523713142917e+00 8.1798569364473384e+00 107 -112 74
501 1 1.2738513136837413e+00 1.0230927745535874e+01 -3.8027623096965613e-03 33 -18 -6
421 1 1.9195122501684217e+01 4.0194602076053396e+00 2.3305735149710927e-01 13 3 72
276 1 7.9505948581604144e+00 1.2213825692950140e+00 1.3098822971087960e+01 30 168 -29
36 1 1.3437601472484181e+01 5.3000000891321548e+00 1.4827653634822056e+01 113 68 119
404 1 2.1882316832483220e+01 8.8260463012816128e+00 9.9589763723259175e+00 -23 136 53
84 1 1.4758186811670974e+01 2.2147187938130961e+00 9.2037751162824541e+00 35 52 38
82 1 1.0820934882735388e+01 1.1805828158785532e+01 9.5142719449397912e+00 -3 -3 7
369 1 1.1299093297586808e+01 8.4895592954345442e+00 8.7088029040619617e+00 2 53 1
499 1 1.7318992974096695e+01 9.2593277909144884e+00 8.9444647814519023e+00 37 -31 -65
217 1 1.2112349402671944e+01 1.0542630023087538e+01 1.5823924533908340e+01 106 -49 79
182 1 1.9627962638863110e+01 1.0136565309025826e+01 1.0662471570387829e+01 115 59 49
72 1 7.3756012455732716e+00 7.6757573023909407e+00 1.1065365233925499e+01 29 62 46
476 1 9.9039482063572670e+00 5.4097630860025152e+00 1.4404369291042716e+01 -29 -5 -57
310 1 2.4378988578583090e+01 1.4257339831575060e+00 1.5003088925003864e+01 -14 -13 12
375 1 1.0885367230841367e+00 1.9266955705131981e+00 8.5301878317059714e+00 8 49 -120
300 1 7.4718597554288433e+00 1.0024693188742184e+01 8.7749861143921315e+00 -78 65 27
458 1 2.0550843014398374e+01 1.0718940874361040e+01 1.3886070241410827e+01 -37 49 -10
121 1 1.5909583412730250e+01 9.3490364671217812e+00 1.6179515543374926e+01 -13 4 -1
435 1 2.4323931340236982e+01 6.5434697223859377e+00 1.2799735851102890e+01 -46 -4 -20
430 1 2.1268123203000165e+01 1.6445041973313754e+00 9.8850849101001739e+00 60 43 3
346 1 2.1028888973536844e+01 6.0764393658119848e+00 9.8468880842643536e+00 44 29 -112
88 1 1.5864577923463965e+01 7.0529204508710732e+00 9.5199889242356850e+00 -18 19 55
246 1 7.1881074302311543e-01 8.1228691067359122e+00 9.2982559962838280e+00 81 57 100
48 1 8.2984526181264524e+00 5.3241230230964414e+00 8.4304822045226668e+00 13 -4 35
473 1 1.8036006754269735e+01 9.6537951618638544e+00 1.3020076384322433e+01 -45 -34 76
1 1 1.4189129536162042e+01 7.9285596062434776e+00 1.1740300304741913e+01 -52 -44 70
491 1 2.4583954797351616e+01 3.9053409146179772e+00 1.0080596569431085e+01 -30 -25 -23
56 1 1.9333666119949001e+01 1.1792121126585144e+01 1.6122306029270234e+01 -8 75 29
241 1 3.3641404733484270e+00 6.9561133073991623e+00 1.3923664602979530e+01 2 -115 -22
445 1 1.6597044464090366e+01 2.9357614710342950e+00 1.3374755046126074e+01 122 71 7
80 1 6.9881116982881837e+00 5.1566672159965492e+00 1.3908796240570284e+01 30 45 7
191 1 2.2849905100299686e+01 2.2549335817000649e+00 1.2209708617901221e+01 40 -24 -18
370 1 1.7450113188383873e+00 3.0285802190683633e+00 1.5100024904878886e+01 -31 110 35
218 1 1.1112688973408560e+00 5.8691655648570666e+00 1.0886767536071119e+01 -49 -13 -23
383 1 1.2367873809128421e+01 1.2874813731811205e+00 1.0733391596319599e+01 -45 91 -16
285 1 4.7296141147986814e+00 1.1526212815866883e+00 1.4828962945886699e+01 -23 75 -6
399 1 1.7956097304360256e+01 6.7923339557554234e+00 1.2638454952788516e+01 18 65 -16
455 1 3.6167901779107043e+00 5.1487736368559247e+00 1.1850057977047127e+01 47 102 14
373 1 1.1267655787293641e+01 7.7816386240792470e+00 1.4780919367043776e+01 53 42 -46
179 1 1.0072935181457206e+01 9.7646808740379143e+00 1.3043225791441301e+01 -79 -75 -39
418 1 3.2345176850756916e+00 2.5286399633957970e+00 1.2635015793802193e+01 -71 -67 -11
424 1 1.8695662267060314e+01 8.2380906623273797e-01 9.8501632037019338e+00 36 5 -23
510 1 1.2550099605224286e+01 1.8273383180952292e+00 1.5787587257011428e+01 -64 143 22
39 1 9.7467368035722157e-01 5.4846070588396829e+00 1.4752967224976231e+01 2 44 43
169 1 7.3954214328374528e+00 9.3279448505043732e+00 1.3298444865028426e+01 -12 23 4
87 1 1.7177648462847330e+01 3.1192352190298589e+00 1.0606602482900945e+01 -10 43 85
409 1 2.3824599391631551e+01 1.0708003044420806e+01 9.4124643427021670e+00 -60 78 62
508 1 1.0583231348288322e+01 3.7834151636966067e+00 1.1900668967084197e+01 4 17 -63
222 1 9.6902135430126872e+00 1.1431518329748807e+00 9.2555288107825557e+00 24 50 58
117 1 1.5995377049774399e+01 1.1616967112367830e+01 1.2911853930901104e+01 44 52 95
410 1 6.1061461505024210e+00 5.2988839881287584e+00 1.1168042309342386e+01 22 131 10
281 1 3.2435439712700505e+00 9.5297644025227921e+00 1.2424836594629218e+01 37 -30 106
199 1 1.2215344781070074e+01 6.1133793597192838e+00 1.1397930157926517e+01 23 70 -30
236 1 1.8460300805158333e+01 5.5750474290568919e+00 1.0068388221469943e+01 42 82 60
380 1 1.3478121814635342e+01 2.7547598749714055e+00 1.3129312653820621e+01 -9 82 66
254 1 1.4446209120946373e+01 1.0977783693414594e+01 1.1163643752658846e+01 40 94 41
127 1 2.4286863423724732e+01 1.1390197720635161e+01 1.1992680265635606e+01 60 68 81
469 1 8.1639858422407130e+00 1.2066873259954376e+01 1.0831518657594783e+01 35 14 25
477 1 6.1241539033141725e+00 7.5403799530957372e+00 1.5240951707479971e+01 36 -12 40
53 1 1.7007348310291204e+00 1.0377485565971725e+01 1.4882239728428292e+01 53 98 139
452 1 9.5528994142294348e+00 7.0370404939146836e+00 1.0166191130139987e+01 8 -8 80
317 1 2.7899483802092044e+00 1.1991276921145888e+00 1.0471404331300448e+01 113 -24 -32
22 1 6.4555799515601402e+00 3.0059974787638089e+00 1.5596383032372065e+01 3 -71 74
186 1 1.4845573965697486e+01 1.1652858722063003e+01 1.5524103896366416e+01 -26 172 46
268 1 5.5571289345182269e+00 4.1581992252808009e+00 8.6955677891503491e+00 -123 -1 0
83 1 8.5987721838131339e+00 5.8983383159164859e-01 1.5938024129757039e+01 33 -3 7
162 1 2.0201420523183458e+01 6.4126230040387382e+00 1.4096635816035441e+01 -39 10 3
290 1 1.5693375015091263e+01 1.7132084406293666e-01 1.3755453545394339e+01 -7 -88 -75
339 1 1.6702180871316251e+01 4.4506380144024016e+00 1.5719520081366845e+01 33 46 -2
172 1 1.5481283251052854e+01 7.0257120787123952e+00 1.4283344247045305e+01 -24 -94 36
209 1 5.6054813760361473e+00 1.1272092463490509e+01 1.2836173368200622e+01 6 5 -45
419 1 2.1743270382329889e+01 8.8046315843322880e+00 1.4821910408292574e+01 43 10 14
395 1 2.4332038391648148e+01 8.9480797476912173e+00 1.3738047869972700e+01 -32 46 -58
194 1 2.2168664598099561e+01 5.0513918041253172e+00 1.2444620655912964e+01 46 103 11
298 1 1.5477774261838286e+01 1.0885478368455125e+01 8.6331172289955127e+00 2 44 3
122 1 8.0729077321351230e+00 2.7692662083230273e+00 1.1008218080650172e+01 13 4 12
393 1 1.9123932600631498e+01 2.0518256878628924e+00 1.4179589985323380e+01 87 38 -89
189 1 2.1571540644684262e+01 3.5040286637948999e+00 1.5219790562596682e+01 121 -52 -36
230 1 1.1908542541721401e+01 9.6213250105004526e+00 1.1069327273481402e+01 4 -28 -133
185 1 2.9126746056857771e+00 9.5106298688217965e+00 9.6728444963154487e+00 0 12 -9
251 1 5.7098298083852281e+00 1.2233870650725542e+01 1.5474582649223098e+01 -39 26 -49
360 1 1.0732927014925588e+01 3.8518348735515060e+00 1.6550780657860720e+01 -94 -42 67
55 1 1.9488625925977476e+00 1.2073900106820634e+01 8.6823697270931319e+00 26 67 -17
221 1 1.9251898212511151e+01 4.6370419346001945e+00 1.6410645025237727e+01 10 -1 37
31 1 6.4252617576560676e+00 1.6200248637457848e+00 8.2869312389644492e+00 -49 -19 128
397 1 3.4676168580024691e+00 5.7141735103816211e+00 8.3405609727706249e+00 -45 53 -45
13 1 1.3023049965942596e+01 4.1424298144691782e+00 8.4269996571765038e+00 131 -4 67
270 1 1.1519141136478188e+00 1.1340608273070634e+01 2.2134532374492778e+01 27 141 105
309 1 5.7125273113286639e+00 1.1157167284196033e+01 2.3115375794448596e+01 56 56 -50
405 1 2.1449807336300893e+01 8.5525589568864717e+00 2.4089099234768980e+01 -32 -6 51
204 1 2.6664658875411990e-01 2.7645116604164119e+00 1.9452937191053621e+01 25 -21 -188
26 1 2.2744158560303568e+01 8.8513199576307695e+00 2.2034887546992231e+01 -23 26 66
69 1 2.2013582972385009e+01 2.6281554774360933e+00 2.1177854662850422e+01 -21 6 -2
475 1 6.3546037045014856e+00 6.2792754405831663e-01 2.3536304611378064e+01 12 -12 -13
193 1 5.4451524970875376e+00 1.0059509977628172e+01 2.0428829697067968e+01 -75 20 -16
104 1 1.9215851930832510e+00 2.6616634460649973e+00 2.4037972238644521e+01 71 28 -21
279 1 9.7731921562518735e+00 4.0823578770253371e-01 2.3637396449829808e+01 -41 156 52
386 1 4.4143099004765768e-01 9.2582151322359678e+00 1.7820589505363223e+01 83 -46 0
293 1 3.4164245573742327e+00 3.0161332339094487e+00 1.7030056941332738e+01 11 129 52
75 1 2.0016509313710763e+01 8.0641282821339093e+00 1.8640043883512440e+01 7 41 7
478 1 6.0507643719417858e+00 3.6413640866160333e+00 1.8495445198637952e+01 35 -5 33
11 1 1.3555906706120130e+01 6.7428729828236715e+00 2.1166697401364736e+01 16 75 -48
439 1 1.0897121226128178e+01 5.6921004121886831e+00 2.2543465781528660e+01 25 -45 -70
223 1 1.5097217666829165e+01 4.0242928486986278e+00 2.1974508157304498e+01 103 39 8
257 1 8.6921983555516888e+00 2.8047594047828683e+00 1.8272427678717868e+01 -18 11 47
324 1 1.0510063390580784e+01 7.7900793731827696e+00 1.7500297651612392e+01 0 -54 75
483 1 2.3452562808329120e+01 1.1655238879197016e+01 2.1529732815323648e+01 43 61 15
178 1 1.5461219074862637e+01 3.6629189971103253e+00 1.8154918149619306e+01 74 35 -62
448 1 7.2192272837148630e-01 4.4222487360141320e+00 2.2445216375016678e+01 9 -35 -16
138 1 2.4484893158184896e+01 1.4385097541436416e+00 2.1840987741219976e+01 178 48 18
85 1 7.7610343465026128e+00 7.5454212594239811e+00 1.7719923789184932e+01 18 42 -108
116 1 2.1032489104497941e+01 1.1824314813078223e+01 2.0137255282945389e+01 -52 3 2
188 1 2.4012442168985928e+01 5.3160857596301536e+00 2.4391608198441475e+01 6 1 68
49 1 2.1338614198582732e+01 1.2472551684789550e+00 1.8518542901144897e+01 0 27 -21
340 1 9.5757139704999314e+00 9.0626046294057634e+00 2.1769281814638944e+01 51 40 13
358 1 1.1109705054804722e+01 3.0161385023647695e+00 2.3867043978809797e+01 -29 93 35
42 1 1.8259938577339774e+01 9.6794124872463954e+00 1.7158330698161251e+01 2 80 -72
140 1 1.6814655472757828e+01 7.9051220134518623e+00 2.2759414471608508e+01 -62 31 -8
163 1 1.0034568642832729e+01 2.8898982704291365e+00 2.0842229634782761e+01 -45 -60 7
89 1 1.2427256185923991e+01 7.1851583666442744e+00 2.4586015668642439e+01 -11 20 -171
224 1 1.3078598659573636e+01 2.5981402522884069e+00 2.1046532709131846e+01 57 -84 5
502 1 8.6223115496146185e+00 1.0822499209534268e+01 2.3489328610149755e+01 -48 -26 -33
331 1 2.9355163029827591e+00 1.1933568838975732e+00 1.9032843711517863e+01 40 24 -12
107 1 1.2462476427441226e+01 1.2402030737701272e+01 1.9247581520020937e+01 -30 57 -136
374 1 3.4049265190736255e+00 6.0973457732343759e+00 2.2593576724382579e+01 -10 40 -9
234 1 7.7661231365977823e+00 9.8988389932507559e+00 1.9136275684567572e+01 66 -19 22
103 1 2.5790301418786410e-01 1.2152618656845652e+01 1.8831288826308196e+01 -27 40 -50
327 1 2.2871680009468953e+01 5.8690262283956844e+00 1.8328504813069493e+01 81 1 5
413 1 5.4253825702683951e+00 5.0780063114854865e+00 2.4008629743761531e+01 -22 16 -18
174 1 1.7087966161033712e+01 4.1617856770345609e+00 2.0126570376499799e+01 20 96 -25
308 1 1.2348881392274349e+01 9.5847069928684405e+00 1.8391557299372451e+01 50 103 65
493 1 2.1072685543389196e+00 4.6771849457390955e+00 1.8823468845289838e+01 -49 97 45
316 1 3.0149205571763238e+00 8.2139090808277864e+00 2.4609783101641881e+01 39 121 67
177 1 1.6897879713433134e+01 7.0810397859723961e+00 2.0312895768415530e+01 -23 -40 37
202 1 2.2367246312486081e+01 9.1745511196383038e+00 1.7473216391949229e+01 23 95 -20
130 1 1.4715064886460556e+01 8.4780945698523613e+00 1.8612734181725934e+01 -17 -37 17
167 1 7.5245435127788145e+00 3.8692099640511133e+00 2.2285093092517364e+01 23 -20 4
456 1 3.6968189328639327e+00 8.5868624800722806e+00 1.9448589997514176e+01 -26 -30 12
168 1 2.1028469740730017e+01 5.8292440579858473e+00 2.3553696873839428e+01 95 -49 -65
272 1 2.0900217626583519e+01 1.8420801922946985e+00 2.3210236163690844e+01 -22 2 115
81 1 2.0317260885318120e+01 9.3832115074249902e+00 2.0771549568220976e+01 53 97 -21
329 1 4.1983358288045647e+00 1.1723025681085797e+01 1.7438377683017279e+01 6 -127 -62
21 1 1.3991877263996221e+01 5.7290694104136675e+00 1.7862428493735912e+01 6 -1 -114
128 1 2.1416082473983316e+01 4.9838879079201455e+00 2.0985543784945484e+01 22 7 -25
18 1 9.4348718489990024e-01 9.0030100306087384e+00 2.0631308211819615e+01 52 54 45
341 1 2.1971996215580212e+01 1.1876629184938341e+01 1.7611272811333762e+01 42 -39 62
349 1 3.5724020286453575e+00 9.4518290216321932e-01 2.2416590101428625e+01 -1 24 48
131 1 1.8879288321636196e+01 1.2464733495282223e+00 1.6753879211213800e+01 19 -34 -6
143 1 1.9478469397040875e+01 5.4498009156669101e+00 1.9120668119376994e+01 41 -3 0
190 1 1.5074687747644081e+01 9.8127812452153211e+00 2.1615151831906111e+01 94 87 22
266 1 1.8902106306856489e+01 9.3413733040622358e+00 2.3627982606513491e+01 22 -65 14
113 1 1.1666406015113964e+01 5.1974038687240496e+00 1.8927762146127002e+01 -41 31 85
73 1 4.3615691156543228e+00 6.1414899467811974e+00 2.0106824208120536e+01 -60 18 19
423 1 1.2299398728373900e+01 9.3122661197622918e+00 2.2504389734449923e+01 -11 6 56
17 1 8.4921644381537238e+00 6.5408764257646341e+00 2.2628413637980366e+01 44 17 25
67 1 6.9005666452023329e+00 5.9915146822696563e+00 1.9926188000095621e+01 -22 -79 -33
200 1 2.4368897360476474e+01 6.3684166338957846e+00 2.0683623221812219e+01 64 92 -18
467 1 1.4698199041696679e+01 1.2027688182305960e+01 2.3333587863899680e+01 -64 95 51
164 1 1.8285185372965010e+01 2.2837129013937751e+00 2.1957042298314555e+01 55 27 144
238 1 6.0784145945691492e-01 6.3840233793183403e+00 1.7004447190780034e+01 48 17 -13
462 1 1.3865563932271947e+01 1.4491788616910406e+00 1.8275063505753472e+01 -70 12 37
263 1 1.5235009591063450e+01 6.3158825523625346e+00 2.4175817847945737e+01 33 134 9
416 1 8.1791732369543144e+00 1.1880740861124647e+01 1.7121708190346880e+01 -9 -34 26
196 1 1.6568693575222511e+01 2.5676007089834010e+00 2.4194129382736271e+01 11 21 15
396 1 2.3295279222337719e+01 2.8596681142284099e+00 1.7629398827147732e+01 -12 -1 19
60 1 1.7048063664469225e+01 1.0775764245415461e+01 1.9696760106606781e+01 -71 -20 65
330 1 5.8316414923001867e+00 1.7404800784749395e+00 2.0694878656638124e+01 -11 22 29
486 1 1.7736457253365934e+01 1.2053125507926506e+01 2.3911489692583388e+01 50 24 -15
485 1 1.1666403910518277e+01 1.1769482232023186e+01 2.3713850980669143e+01 -17 4 76
325 1 1.4642750403845255e+01 6.4195367749714549e-01 2.4603325371048982e+01 -76 31 32
109 1 8.4874429656671193e+00 3.2512405285844981e+00 2.4832888639006374e+01 -87 -36 -50
77 1 1.6181940263935090e+01 1.3119376425543702e-01 1.6605819859808861e+01 68 -26 13
512 1 3.8340207529384447e+00 9.0599218408056714e+00 1.6583752504185028e+01 -23 -38 92
313 1 1.4956180184382831e+01 2.3150179845485113e+01 6.1475765573851655e+00 -43 25 45
260 1 2.2738694722578877e+01 1.5615544273794280e+01 2.7541396341982791e+00 -28 -7 50
108 1 5.4323237285294717e+00 2.4546273088697006e+01 3.8709525777158604e+00 44 -41 27
78 1 1.7040483225641331e+01 1.2982419166981451e+01 7.9167147987980915e+00 -17 -61 -28
150 1 2.7881003134114155e+00 2.3434485675741421e+01 3.2231249378640126e+00 73 -34 72
102 1 3.1827189753776404e+00 1.5896886494031154e+01 4.9617849837233186e+00 18 -15 27
126 1 1.3759131998585744e+01 2.0987591868141337e+01 7.3313140285954379e+00 -31 -33 -35
323 1 1.2250498211968814e+01 2.0502935525045018e+01 8.0343004199594159e-01 15 -112 22
198 1 1.2742341283162354e+01 1.5628946206523144e+01 4.3207144871082699e+00 -34 45 9
381 1 1.5023935891322598e+01 2.2593900626530484e+01 3.2701161759319302e+00 28 -114 43
24 1 9.1667269709474173e+00 2.3142987197157595e+01 1.8251672618519479e+00 27 -59 61
505 1 2.3372605846447621e+00 2.0767457802695986e+01 4.0611108850267552e+00 -5 28 -48
274 1 1.7669011770829265e+01 2.0194020904081192e+01 7.7634589474706193e+00 -47 31 -1
292 1 2.4812879610998191e+01 2.0751681489939344e+01 5.9747303647229897e+00 -17 19 67
233 1 1.1130843141723853e+01 2.0460834523607474e+01 6.1647449020799190e+00 -4 -33 -26
387 1 1.9876217723305473e+01 2.0554293559782082e+01 9.1090602526570669e-02 63 -21 125
345 1 1.6314060069587931e+01 1.6880867030031524e+01 5.0083773586814502e+00 78 138 -21
322 1 1.5635752379228462e+01 1.8475319235596700e+01 2.8047850442611275e+00 19 48 -6
277 1 1.9571306013685493e+01 2.3954139328114216e+01 6.6295686956496302e+00 30 3 107
407 1 1.0538518780966399e+01 1.3970153867003432e+01 4.5917521406106321e+00 24 6 57
336 1 1.5540734509818542e+01 1.8985395302333750e+01 6.7757374615990642e+00 39 -16 -126
10 1 2.1188708033748497e+01 2.2776727607433621e+01 2.6360076038365143e+00 -85 45 -22
433 1 1.1388901357593030e+01 2.2684942456330042e+01 3.8790310402337669e+00 9 -44 -47
151 1 1.7856768484752543e+01 1.9260644208435970e+01 2.0443926535774977e+00 -37 -39 -3
352 1 1.9665984874534830e+00 1.2429581313418145e+01 9.7299334257511261e-01 48 -38 -73
95 1 3.5317374255245739e+00 2.4645287405355383e+01 6.0034734377247645e-01 58 122 -2
470 1 2.1579706582168711e+01 1.4663953829045685e+01 4.9099058193901897e+00 23 -27 -135
139 1 2.2461461768105522e+01 1.6280924394239698e+01 5.6598475583785932e-02 -12 2 -17
326 1 2.6600805487666532e+00 2.4802971306557524e+01 6.3747416222666411e+00 36 122 -4
403 1 1.3423676991995617e+01 2.0172124866520640e+01 3.1003915752651530e+00 -72 57 15
181 1 2.2937474610454636e+01 2.0189550698136159e+01 1.3179582128706508e+00 80 62 -55
311 1 1.4894342352976089e+01 1.6211196725333679e+01 1.1593193143320124e+00 10 -54 21
367 1 1.8295547593529044e+01 1.3301169477677831e+01 1.6380952377139884e+00 -1 -8 64
212 1 1.2371810444530649e+01 1.6315790708931672e+01 1.5950355577281516e+00 -7 -43 -36
390 1 6.6101755434534946e+00 1.2898647981242458e+01 6.9417908023780219e+00 -15 -39 -17
227 1 4.3643827702196694e+00 1.2556495574738191e+01 2.7861813915967932e+00 134 105 1
110 1 5.9724073420339092e+00 2.2092976206498577e+01 2.4994154265666917e+00 28 -33 -33
385 1 1.9914183342646460e+01 1.7674706697020575e+01 3.2328371866132635e+00 47 25 48
504 1 5.8538404134864956e+00 1.8673183990379478e+01 1.1943894400416299e+00 -35 -25 43
231 1 1.5567185928318030e+00 1.6131544776854966e+01 7.1972462271568141e+00 -43 10 37
269 1 1.5758741735297635e+01 1.3637243334562415e+01 2.2768102948644424e+00 23 -35 4
314 1 1.9066420276902583e+01 2.1508965963503677e+01 3.5404460862160776e+00 -15 22 -9
265 1 7.6475825506709141e+00 1.7682579265703133e+01 6.0874659872428856e+00 -73 -45 66
145 1 8.1621723949543394e+00 1.5056200757795043e+01 6.2939463783452574e+00 26 -11 -51
451 1 1.6366220799183040e+01 1.2980465837642743e+01 4.8639444784378574e+00 68 42 -23
19 1 1.4866346485138855e+01 1.4794898649797087e+01 6.0758999744577338e+00 11 53 76
509 1 1.7547952176360454e+01 2.3610108667893662e+01 2.8619573356936363e+00 116 54 -81
267 1 2.1228433354580616e+01 2.4793908059020982e+01 4.6506353082009078e+00 -94 68 -56
142 1 4.2088254250733605e+00 1.3252985941202267e+01 5.5893322283140225e+00 18 14 50
335 1 1.9168770919467271e+01 1.3285650102519691e+01 5.0109009271567579e+00 23 -19 89
232 1 2.4178170866788484e+01 1.7390660078643364e+01 4.4069401390711667e+00 90 36 23
271 1 3.4545883853097292e+00 2.0025449580925631e+01 1.5957176705976681e+00 36 27 -46
165 1 1.8517484274432555e-01 2.4710192584386391e+01 2.8401322093539614e+00 96 -15 104
378 1 2.2093480981213456e+00 1.6597013737686055e+01 1.0901592470955630e+00 15 -15 -77
27 1 1.0347934954565105e+01 1.8489114575659613e+01 1.1169015532282220e+00 16 -29 63
47 1 2.3114711142806726e+01 1.6223266335831639e+01 6.7608523778797052e+00 17 59 -101
170 1 1.1172392275975714e+01 1.8640452031277718e+01 4.2800861702859754e+00 3 40 -18
249 1 8.0186784524772499e+00 1.8377990015316918e+01 2.7706012740926216e+00 -59 -47 -31
488 1 2.4304189933595559e+01 2.1786243389055294e+01 2.8879784854269492e+00 -20 -15 21
51 1 1.9783092128720810e+01 2.4792532424646403e+01 8.2185308693841808e-01 40 -10 -50
425 1 1.7574253429685316e+00 1.7755698985263408e+01 3.2816114229397284e+00 69 31 -10
149 1 6.4044284173999335e+00 1.3937708072059085e+01 1.6678764800363246e+00 -46 59 -9
184 1 8.3144845701574326e+00 1.5522470858238476e+01 3.3155128264369571e+00 1 15 30
255 1 1.9692524829177380e+01 2.1459105018059823e+01 6.1338862822484819e+00 -131 6 79
353 1 2.2320220956522768e+01 1.8979991835756749e+01 3.7748320310754058e+00 -172 63 93
303 1 7.2555748719719402e+00 2.4669809034403357e+01 5.9825183281432111e+00 16 -3 203
507 1 5.0040229829903815e+00 1.5892173331313364e+01 3.6445802183339954e-01 -60 18 -16
432 1 1.9325007620244214e+01 1.5683694549412772e+01 1.3243527874163099e+00 39 -59 2
264 1 8.7712332121217429e+00 2.2405753450979660e+01 6.0441485112786051e+00 -106 30 43
446 1 2.3862369303491398e+01 2.2788936748708394e+01 7.9381811500005091e+00 17 35 -18
253 1 1.9000910567029322e+01 1.6461339670608886e+01 5.4267865469810914e+00 -3 12 -9
98 1 1.1603501161033840e+01 2.3707737186829874e+01 1.5238553670017782e-01 73 76 -4
252 1 1.1369906598487034e+00 1.4057837296243793e+01 3.1899698934325338e+00 -46 -81 8
195 1 7.1033348964600451e+00 2.0742554432794876e+01 4.3645626025338853e+00 -10 -9 76
492 1 2.4547248729778467e+01 1.3913663859476936e+01 7.9762751068472344e+00 2 -20 43
144 1 2.2271469874571125e+01 2.0461317607078790e+01 5.9313173825258492e+00 -19 36 52
400 1 4.5732639329222868e+00 2.0465272174398208e+01 5.5289316845700682e+00 56 30 -21
2 1 4.5591350015413470e+00 2.2978615942043461e+01 6.9581925245830742e+00 -52 0 -11
379 1 4.8932143571943874e+00 1.7648919985112954e+01 6.7978678588899593e+00 142 -4 62
506 1 4.6550464272756176e-01 1.8781232760518066e+01 7.5896579345654551e+00 -19 -19 -8
46 1 1.3010021134250049e+01 1.5065965454539038e+01 8.2691366938133690e+00 42 -9 62
160 1 1.1034101678964049e+01 1.6701167231820314e+01 6.9491688520105539e+00 -16 44 43
459 1 1.1355972954361649e+01 2.4822386105400675e+01 5.9036763363857565e+00 57 -28 43
50 1 1.3231597958517169e+01 2.4576287168053184e+01 2.2043440808758450e+00 7 24 -33
61 1 8.6716353749330981e+00 1.3138565792092082e+01 3.0007995220570327e-01 89 -57 105
239 1 1.1937392052487732e+01 1.2440496542982991e+01 7.0578263854716932e+00 44 -17 -2
12 1 2.0245250734279118e+01 1.7121396980939537e+01 7.6352312308409926e+00 56 -42 65
472 1 3.0663735873124351e+00 1.9728297826914691e+01 7.9110931293255211e+00 28 -30 65
210 1 1.6849770232471982e+01 2.3272978816396794e+01 8.2630119598781686e+00 -5 1 40
402 1 6.9404542494826140e+00 1.8341321163249866e+01 9.1616064197322427e+00 41 55 -30
159 1 2.1468759163776340e+01 1.5033442261439566e+01 9.3391096255486978e+00 -46 52 112
58 1 1.3240384721245672e+01 1.8793535276587335e+01 1.1330086228136274e+01 2 -12 3
365 1 5.5805046872079378e-01 2.3307119463181586e+01 1.5971439078729839e+01 -13 71 -33
32 1 7.4833899150284173e+00 1.4388427223915867e+01 1.3163214611435633e+01 -51 109 -41
93 1 1.1994795316846544e+01 1.5106831101966167e+01 1.2526491391783120e+01 -35 -17 14
487 1 2.4042941012592387e+01 1.9259086642926341e+01 1.0002878852609529e+01 24 42 -16
366 1 1.4277913341576500e+01 2.2306848026052776e+01 1.2654271778463768e+01 161 -7 -44
288 1 1.8929459715846910e+01 1.4574219325015754e+01 1.6088547982395042e+01 -67 -24 -81
273 1 2.0569853667230710e+01 2.0985303914905138e+01 1.0172183834942166e+01 86 182 116
229 1 2.2024355654195027e+01 1.2932349784412093e+01 1.3285045857776019e+01 42 22 16
294 1 3.1154453079592175e+00 2.2407945712086935e+01 9.4045314129137711e+00 37 37 -76
262 1 7.8024085633821603e+00 2.0665369549631755e+01 1.0354046245889824e+01 11 55 -42