LAMMPS data file via write_data, version 4 Jan 2019, timestep = 4000000

512 atoms
1 atom types

1.6210902500496616e-01 2.4672890974996982e+01 xlo xhi
1.6210902500496616e-01 2.4672890974996982e+01 ylo yhi
1.6210902500496616e-01 2.4672890974996982e+01 zlo zhi

Masses

1 18.0153

Atoms # atomic

35 1 6.1629635879225253e+00 6.6305612066349600e+00 5.1933596793299888e+00 -53 30 -45
182 1 1.8238323209795929e+01 8.2382123411074222e+00 9.4506289739463967e-01 119 53 50
385 1 2.1009656187389123e+01 3.5083504692841316e-01 2.9950496106527269e+00 48 28 52
130 1 2.0892191453166809e+01 1.0920931017685838e+01 6.7340888741042990e+00 -19 -34 12
272 1 8.8885615096696817e+00 2.7264478642681138e+00 4.8187010568124089e+00 -22 2 111
316 1 1.9064826469196365e+01 1.1058657741264733e+01 8.5385252387124577e-01 36 120 68
480 1 1.6892592610513006e+01 8.2718089629018969e+00 3.4997321547195539e+00 13 -56 81
68 1 2.1277287855168922e+01 6.8257682559496242e+00 2.0809668201615663e+00 3 -22 15
473 1 5.5659577782107927e+00 8.8831848614045548e+00 1.5960781152870511e+00 -44 -33 70
185 1 9.0417358279957778e+00 3.4676983845303067e+00 6.5059270412767500e-01 0 12 -13
304 1 3.9330525406221981e+00 4.7834167280328996e+00 3.6970444884323889e-01 -22 -48 119
26 1 2.1348154302588021e+01 2.7330405969959761e+00 3.9185207086922831e+00 -22 23 66
183 1 9.8285282184843457e+00 4.0324912606140977e+00 7.2085475845730747e+00 34 93 20
60 1 1.1824910589570209e+01 9.1601932249601230e+00 1.5118303542875358e+00 -69 -22 64
422 1 1.7158145612464626e+01 4.7982928667095290e+00 2.5139999372068029e+00 -6 71 71
383 1 1.2169616347438385e+01 1.1651626344818196e+01 2.5614692849789017e-01 -44 89 -24
323 1 8.8623126089333990e+00 1.0426322402491408e+01 4.7896152719078158e+00 14 -108 21
162 1 1.4262102709959118e+01 4.7162621019331539e+00 7.6089936300476255e+00 -38 9 4
143 1 1.7308512665231227e+01 6.5442067538400224e+00 6.5152862627172698e+00 40 3 -1
387 1 7.2166294678485610e+00 5.1509442705645663e+00 7.1178115488784934e+00 68 -21 129
155 1 5.8165930488047586e+00 5.2825478477225483e+00 2.6538380460141506e+00 -47 35 34
319 1 4.2778620717467009e+00 1.0848242203203242e+01 5.7407143739473225e+00 -35 -2 47
62 1 1.9185794082167533e+01 5.5986393731492496e+00 4.0585436630037519e-01 77 -30 -53
128 1 1.4697954084250606e+01 7.5055935527703017e+00 7.3252152361776890e+00 23 6 -22
502 1 2.0301844436207535e+01 9.4637278419873532e+00 3.0000742408575425e+00 -44 -27 -40
293 1 4.5261348434085003e+00 1.1576117148861037e+01 2.9434620718855817e+00 12 132 56
435 1 3.2225482608998979e+00 1.7403156402121083e+00 2.2935763644069711e+00 -41 -10 -19
146 1 3.1412396906936539e+00 4.4597596225290124e+00 3.2536220237958040e+00 -7 -10 9
468 1 1.9170778646796506e+01 8.4364169174304653e+00 5.1651899078730423e+00 64 4 -43
40 1 7.0319864708904711e-01 6.0569923897178803e+00 2.7954509864188402e+00 1 38 62
491 1 1.8301023328397299e+01 5.9228680434007053e-01 1.9029523195940623e+00 -32 -30 -22
291 1 7.8556164696308706e+00 9.6200975755341585e+00 2.2196540529860438e+00 33 109 75
71 1 2.2597228281474830e+01 1.1225355037199336e+01 3.3306640220912618e+00 67 -69 -64
289 1 1.3767308606678499e+01 1.5100967475742431e+00 5.1196892584442262e+00 -23 -7 -56
461 1 2.4309649779060578e+00 5.4740119563884193e-01 6.2020479330258098e+00 11 28 -15
49 1 1.6039895879291507e+01 1.1003514053269399e+01 3.9937837874254862e+00 -11 26 -27
15 1 1.1400783104541096e+01 1.1968776143918571e+01 4.1430046858879637e+00 7 -9 -136
48 1 1.4635786638218866e+01 6.4507823722286446e+00 2.4009865840789906e+00 11 -5 35
401 1 1.0124934683849574e+01 6.6586165482018957e+00 2.1272475693909754e+00 34 10 18
152 1 2.3711156285865815e+01 4.9551819252042222e+00 6.4872615606052397e+00 -58 -154 -7
38 1 1.3816048560276517e+01 1.4137786922509947e+00 5.7607729885248105e-01 -17 53 -18
490 1 2.4550866864769223e+01 1.0087722525044121e+01 5.3504131041821186e+00 12 -92 -1
122 1 2.3836748919048730e+01 7.2535410492605044e+00 4.8718572254886192e+00 9 9 11
166 1 1.4539699016607520e+01 3.1506332723881227e+00 2.7840874782585256e+00 34 -14 -25
262 1 1.1593265345090321e+01 3.0763535998839262e+00 1.3844607746967896e+00 10 55 -44
111 1 1.2090979673040028e+01 3.5080147810313789e+00 6.1114656606378066e+00 4 43 89
275 1 2.3890072386403673e+01 2.3000692522571238e+00 5.3545394081299458e+00 33 -10 26
20 1 1.0942090144051473e+01 8.3248876970549912e-01 3.3015862235286288e+00 123 34 30
395 1 6.2094471064799484e+00 2.0526499854549689e+00 5.4104669326962780e+00 -29 49 -56
420 1 5.7188913377801915e+00 8.8082732371079082e+00 6.9350788300607107e+00 38 -26 122
160 1 8.5086378294512190e+00 7.6765700552438050e+00 4.1374001157688118e+00 -18 47 44
157 1 3.3455280708404880e+00 6.3452367590724892e+00 5.6701233468706498e+00 -12 -19 57
332 1 1.0898885172272865e+00 7.2045046681180089e+00 7.4017009789766917e+00 16 -25 -100
336 1 6.0842268539018498e+00 2.1598561709073243e+00 2.2838037300533709e+00 39 -14 -124
170 1 4.0119969225693772e+00 3.5147534664458457e+00 5.9443615085347181e+00 7 38 -17
360 1 8.0495680885833139e+00 9.9413843882355817e+00 7.4611224214958831e+00 -94 -45 70
305 1 1.0202032022087110e+01 7.7648099872363403e+00 6.6960705783979302e+00 13 95 31
404 1 1.2458222436807196e+01 1.1993806964295864e+01 6.5626556708711776e+00 -24 135 49
140 1 1.4602221191320611e+01 1.2270359504788631e+01 1.7681246011439062e+00 -63 28 -8
382 1 1.5659755598030726e+01 2.3781506447066172e+00 6.9990644420321795e+00 49 -11 56
217 1 1.2323577621942171e+01 5.0982612696923697e+00 3.6225664577923844e+00 103 -45 82
150 1 1.3364408519427897e+01 9.7550275753703737e+00 3.4357448523909144e+00 76 -31 72
273 1 7.8935443676835926e-01 8.9979281313687065e-01 3.5505964600136868e+00 80 181 123
299 1 1.6537329871758601e+01 2.4228650965684011e+00 7.0456424657994499e-01 47 19 61
337 1 1.7544486182732850e+01 3.8816977987528896e+00 5.2513978959301904e+00 29 12 -43
230 1 1.7900377077340728e+01 9.5402339538986836e-01 6.1745564822699475e+00 2 -31 -134
269 1 2.0268420712618369e+01 3.9031331340345123e+00 5.9449727245152353e+00 24 -35 5
424 1 2.3044834848506540e+01 4.4796840953538224e+00 2.2052312380265850e+00 37 8 -20
193 1 8.5703843104964470e+00 4.6872286874871758e+00 2.9529674224207332e+00 -79 25 -17
110 1 5.2244453360248866e-01 1.1713156304443700e+01 7.5530704104439019e+00 30 -33 -35
333 1 1.3176722236703020e+01 7.4555250925048453e+00 4.9582638900281868e+00 20 36 27
463 1 2.7429396943780828e+00 9.0120382349726746e+00 4.8369039344185767e+00 -42 27 -41
345 1 2.6487873410682905e+00 8.3338212509824334e+00 1.9254611037454863e+00 84 139 -19
397 1 1.2283584821520190e+01 9.3124687216723885e+00 7.1813076611855653e+00 -44 52 -42
213 1 1.5176165267478144e+01 1.1901320863689737e+01 6.5177662535481735e+00 -47 -9 18
380 1 2.1847429346079796e+01 1.7591512931296735e-01 7.3369265320772721e+00 -8 87 64
361 1 2.1048069854448404e+01 6.4814215509072479e+00 4.9170832571411731e+00 -56 110 -9
292 1 7.0511913167805833e+00 1.6276151967648442e+00 8.2623308861762847e+00 -13 22 64
156 1 2.4441574582690922e+01 1.0862866159303318e+01 1.2556079315169772e+00 39 30 -17
4 1 2.4515054959302244e+01 3.9910709069845868e-01 7.6064470466115495e+00 19 -78 11
41 1 8.8606189095427332e+00 7.4266344086582237e-01 1.6281078895032552e+00 70 -9 36
77 1 1.9858851384715571e+01 8.7097961445988332e+00 7.9072932145449419e+00 62 -25 11
277 1 5.4361397579422581e+00 1.1264313844649971e+01 1.9152705935799830e-01 36 6 105
22 1 5.9410203524187102e+00 6.7762958476456898e+00 1.6901946091133269e-01 3 -72 75
377 1 1.4647568455975786e+00 5.6731961900171743e+00 1.0891384010724719e+01 18 11 -110
105 1 1.8793915021502691e+01 5.3936463780441954e+00 1.4107035489362108e+01 1 85 9
202 1 2.3679590500331731e+01 1.9069263473584057e+00 9.9472666478940539e+00 26 94 -19
282 1 3.4825008811575979e+00 5.9419194840662373e+00 8.5962786508067843e+00 33 26 71
498 1 5.0691806765568721e+00 7.9652546917471305e+00 9.5137774590395612e+00 39 14 3
393 1 1.8345395081041730e+01 1.0336775177477060e+01 9.7119815346031899e+00 90 35 -85
11 1 9.0434935428846206e+00 3.4290211305567309e+00 1.1546953137239376e+01 17 71 -46
200 1 2.2070823998987933e+01 5.4898325691633474e+00 8.6626484250971600e+00 64 93 -18
356 1 1.3187054629750405e+01 6.6963828234161058e+00 9.5749705618495344e+00 -70 2 -1
64 1 9.4282371653719199e+00 6.7752362726532711e+00 1.4390227962505671e+01 -39 66 21
434 1 1.1326899689229755e+01 7.8117315122818924e+00 1.6478464903906332e+01 45 -33 -80
108 1 2.2990607644868376e+01 6.7690527555940223e+00 1.5774793518182266e+01 43 -37 31
6 1 1.7748037360236154e+01 5.2737396621595902e+00 9.0600002868801912e+00 83 25 -31
429 1 1.8190440902221962e+01 2.5954629123767443e+00 8.6844396873079450e+00 -25 -38 39
314 1 1.0405296945972383e+01 6.0559201874712061e+00 9.0663318439986860e+00 -14 23 -9
94 1 1.2296968743416299e+01 3.6869422600232049e+00 1.3512076907382243e+01 -59 36 41
309 1 1.3322430630122229e+01 1.1740109456892553e+01 1.2055142732349450e+01 59 60 -46
430 1 2.2826675436304082e+01 7.0383689251355648e+00 1.3140987008646354e+01 55 46 5
306 1 2.3393824683722162e+01 9.8777534824003048e+00 1.1484705493822442e+01 -4 69 -64
403 1 1.3663097145193602e+01 9.1778411875520831e+00 1.0849522928748675e+01 -68 54 13
512 1 2.9213479560663176e+00 1.1459009833275542e+00 1.2261252964845887e+01 -25 -30 89
294 1 8.4833115776682639e+00 2.1514231522137961e+00 1.4042055044514095e+01 37 39 -76
255 1 1.6719311357999658e+00 4.4826349907061331e+00 1.5437421789618424e+01 -129 5 81
274 1 2.0044862546047764e+01 9.6313571411856902e+00 1.3999851539175729e+01 -47 29 6
204 1 1.1216897783104367e+01 1.2210676186847051e+01 1.3939000996260003e+01 23 -22 -188
101 1 1.2612024609113167e+01 1.1215630370522048e+01 1.5935565101703284e+01 -35 -29 67
95 1 1.7326462778127762e+01 1.8440641911774085e+00 1.1128341928118530e+01 57 126 0
54 1 8.1468758912138277e+00 8.8158564685148715e+00 1.5584142263452504e+01 -8 20 47
228 1 6.4116171154651163e+00 6.0026486629483342e+00 1.1228682450017180e+01 -38 24 23
186 1 2.3976141023608415e+00 1.0832785878646504e+01 1.3490756206510754e+01 -22 171 44
384 1 4.2640715469354893e+00 9.1246547655824761e-01 1.4754673873986354e+01 1 8 6
331 1 6.0837686491238696e-01 8.5581856821573776e+00 1.3206625226272900e+01 37 24 -12
37 1 1.2456234110192179e+01 6.7773775086366117e-01 1.5987148603964306e+01 44 26 -44
187 1 2.3510431463609137e+01 5.0482717037232536e+00 1.1403310817067744e+01 0 20 -8
343 1 1.3563544047799958e+01 8.6124919612461266e+00 1.5014991000803112e+01 -65 19 143
462 1 1.4367955776127188e+01 2.2968899458781631e+00 1.4938665784410215e+01 -70 10 37
389 1 4.5674523333821915e+00 1.1226040272898810e+01 1.1847492391185359e+01 5 69 -16
25 1 1.9404255924878495e+01 3.2301300568963618e+00 1.2358039648534918e+01 59 -76 -55
240 1 6.5922430171055790e+00 1.2240370649557988e+01 1.3338839026067623e+01 -220 132 55
34 1 1.7759367877683484e+01 8.3719062579700818e+00 1.1567960064031700e+01 -121 -14 125
181 1 2.3796953919042810e+01 2.8825417007341021e+00 1.5572280879779315e+01 81 68 -55
506 1 2.1597257027664536e+01 1.1309244936429057e+01 1.2814881996107633e+01 -16 -20 -4
205 1 2.0785444556710019e+01 9.4192276983392509e-01 1.3103013223549372e+01 -35 -11 -59
501 1 1.9701740987428679e-01 9.2099114400495772e+00 8.8673938293896999e+00 33 -16 -5
153 1 1.4883451732758537e+01 3.0321830763349347e+00 1.2272956600698192e+01 2 -18 77
245 1 4.9077332877005070e-01 7.2609108922656274e-01 1.3766164116936897e+01 -20 11 90
250 1 4.8787772273164469e+00 5.6905268295686255e+00 1.3304924147374669e+01 -6 12 167
505 1 2.1713411863266479e+01 8.1855635947296701e+00 9.9604346460827156e+00 -7 27 -46
391 1 5.4604823618583760e+00 7.6442315156817928e+00 1.5593691029053154e+01 -84 -29 -10
312 1 1.0032940122278905e+01 4.2120627666432391e+00 1.5150336616353950e+01 -1 16 10
23 1 3.2079930885290442e+00 9.1441503511777480e+00 1.5465987068777808e+01 55 36 4
65 1 1.4249185594513579e+01 2.7418541270490695e+00 9.4885016248280358e+00 -39 71 -11
221 1 6.5106575968765847e+00 2.0344393412939308e+00 1.1216432234312991e+01 10 7 42
247 1 9.0226166064209554e+00 6.3574095338663925e+00 1.1523220333190832e+01 12 -16 13
225 1 9.2494682317155252e+00 9.3080011531159403e+00 1.1407228899182437e+01 21 74 16
281 1 1.1697482214750007e+01 2.7221494853128791e+00 1.0759275267351494e+01 32 -34 107
326 1 6.8141858653759737e+00 1.0166683416476380e+01 1.0036200317654837e+01 37 120 -7
414 1 1.7683260480346515e+01 1.0168707965550905e+01 1.5132893091073685e+01 102 13 60
308 1 1.6915526842844983e+01 1.2393807331182597e+01 1.1351939416943303e+01 47 103 63
196 1 2.8422422102294886e+00 7.5773159321216648e+00 1.2200720555549468e+01 8 18 16
445 1 1.5658782562628845e+01 6.5937845678714204e+00 1.0667955595891732e+01 122 68 6
499 1 1.6111759096656492e+01 5.3208365904840500e+00 1.2928085105926343e+01 38 -30 -65
482 1 2.0111519647012607e+01 7.2979047666284789e+00 1.2597747303892870e+01 5 73 36
495 1 5.8091649209806109e+00 4.1313472486121814e+00 9.2262162752310743e+00 -30 9 -61
460 1 1.1466745673676638e+01 1.0279429417506403e+01 9.7264627778288517e+00 -115 126 38
242 1 9.5922863833781395e+00 2.0202760787198342e+00 8.9764539348917456e+00 11 3 -52
2 1 1.1788660048188440e+01 7.4557841411660410e+00 1.2007206608307762e+01 -50 5 -16
317 1 5.8996142473559798e+00 3.0196614548886651e+00 1.3729188252661343e+01 113 -21 -27
47 1 2.6182707861373040e+00 3.9926488870190884e+00 1.2624919494636242e+01 21 65 -101
144 1 1.3713523249335534e+01 6.0831010786927306e+00 1.3817833333217651e+01 -18 33 48
231 1 2.1490686936605048e+01 1.4241698340436033e+00 1.5872980844751348e+01 -43 13 35
254 1 3.2741597355894054e+00 2.1860348958180018e-01 9.9955728897858744e+00 48 92 44
489 1 2.3154458957512325e+01 2.6088176842068558e+00 1.2708087335781061e+01 74 187 -39
411 1 2.0060664471160155e+01 5.1891975338380991e+00 1.0557731560869440e+01 23 112 160
87 1 2.7234740276703069e+00 9.4941079818970913e+00 1.0120666972065683e+01 -9 42 86
84 1 1.5468276095174270e+01 9.7001664745449165e+00 1.3011459607961285e+01 36 57 33
173 1 8.9773608134894651e+00 1.0775230379629043e+01 1.3610235808190565e+01 44 54 -2
235 1 1.2063103425609887e+00 7.3567820773843220e+00 1.5721217805255129e+01 23 -58 146
370 1 7.2138399187786328e+00 3.4398907459926291e+00 1.6347022651495013e+01 -30 111 30
175 1 7.5319474895669947e-01 3.9658598774503506e+00 8.8857075944402766e+00 39 2 -24
334 1 1.4769811962094307e+01 4.8950532314008592e+00 1.6030729795574203e+01 43 67 14
214 1 2.1693164451880076e+01 9.1579648206141222e+00 1.6142659154683376e+01 20 100 0
488 1 1.5546185861561613e+01 9.9432193731741965e+00 8.6149238381207489e+00 -22 -16 21
243 1 2.1126453753696946e+01 2.6738217034042329e+00 8.4548173265874382e+00 13 -38 -12
222 1 2.2583545378584990e+01 1.2366822621225877e+01 1.5022555260867719e+01 22 54 54
135 1 1.5625342861885446e+01 2.3849893751902584e-01 1.3288026097662664e+01 3 52 -68
400 1 3.1762775145451125e+00 2.5240888255404905e+00 8.3639697696011979e+00 59 25 -26
69 1 1.6197224867325438e+01 3.5854474605533744e+00 2.2563091107030431e+01 -20 4 -5
73 1 1.5633786199372528e+01 7.1403046702635651e+00 1.9951218510242864e+01 -57 11 20
449 1 1.5082469623460657e+01 1.0639712837785831e+01 2.2023952308387976e+01 -56 71 30
114 1 3.1447627749372904e+00 1.0840149689955858e+01 2.2819752416464500e+01 -12 14 -13
503 1 1.9108932713369978e+01 1.2277439890717691e+01 1.8513727101591929e+01 -17 0 24
98 1 1.9861973320958032e+01 8.7952200945319365e+00 2.0638904795356531e+01 73 73 0
298 1 2.4087031573957702e+01 7.7741031672140304e+00 2.0701639204112080e+01 4 45 3
279 1 1.1894463313650174e+00 2.5872269692645946e+00 2.0207027846315572e+01 -41 157 49
283 1 1.4479812560039453e+00 1.2836183790147875e+00 2.4543144644032751e+01 86 -37 67
120 1 2.1787272779046994e+01 5.0324067210552679e+00 2.4224413060488871e+01 -4 -65 66
451 1 3.6610289022955085e+00 1.1061431175617786e+01 1.7342377999326647e+01 70 39 -24
131 1 7.5434425490035846e+00 3.0178392244928114e+00 1.9906500779018366e+01 18 -30 -11
61 1 1.2814237321438041e+01 1.8768262319791091e+00 2.0709523470256826e+01 89 -58 103
246 1 9.5816013464811824e+00 5.0257550108224400e+00 2.0042980287205896e+01 85 59 102
136 1 2.4477769449473715e+01 8.8082981297040011e+00 1.8207539306138468e+01 36 -69 109
408 1 1.1886018136180342e+01 8.7439666924169082e+00 2.0715136418701555e+01 -140 28 58
10 1 8.1027872999577149e+00 7.2595848289444920e+00 2.0131607256207282e+01 -82 54 -26
36 1 1.9175868099379457e+01 2.0053599106351654e+00 1.9707202689638752e+01 109 66 121
53 1 2.3190872739541412e+01 1.1123326516187955e+01 1.7439064631003323e+01 52 101 140
158 1 4.4391281797452322e+00 8.9528594519746942e+00 2.1343814498951538e+01 -60 58 -87
355 1 1.9716719301548711e+01 9.5139036595115432e+00 1.8052185272791714e+01 -33 -2 67
174 1 6.9741698831045005e+00 9.7431748041625674e+00 2.1229368769853092e+01 20 93 -25
486 1 1.6116983156066816e+01 8.5559968808034004e+00 2.3880180430018420e+01 51 20 -14
125 1 2.1822440122876543e+01 7.2318575220370018e+00 2.2330839191087424e+01 -49 -48 -16
28 1 4.8114783810903496e+00 1.9603158256759561e+00 1.9072759721436629e+01 16 38 27
211 1 1.4788010120208906e+01 1.2309272540287230e+01 1.7344018898072367e+01 -35 12 -21
325 1 1.3653431111763204e+01 4.5644863071294921e+00 2.1762311633494971e+01 -84 33 38
321 1 2.1489697974045107e+01 1.0839046779299592e+01 2.1013294969235659e+01 40 26 -82
284 1 3.5493125233114693e+00 2.8158421669904850e+00 1.6650678838479159e+01 -85 -60 -12
45 1 2.2928689084533975e+01 8.4805107024978916e+00 2.4607428799093110e+01 -4 88 -83
133 1 1.5110605601149063e+01 1.2223395106139645e+00 1.9369535974278907e+01 -33 78 -48
97 1 3.4514227430774684e+00 4.2154064712651769e+00 2.0245358004013823e+01 27 63 -4
351 1 1.7074861381662323e+01 8.7529153628380811e+00 1.7102075849174021e+01 27 -34 -64
50 1 1.3563147426756685e+00 1.1588994492165458e+01 1.8768761568921889e+01 8 28 -38
328 1 1.2940428299461890e+00 8.8852683449631087e+00 2.3904635305015614e+01 73 80 -11
381 1 8.3923168233996961e+00 9.3959260104790765e+00 1.8221188718011998e+01 26 -108 44
415 1 1.9189444997167055e+01 2.2981376277788024e+00 1.7119743622137520e+01 -59 -45 24
123 1 2.2217885418720797e+01 5.3273142047619340e+00 1.9793351566120922e+01 -70 -5 -1
1 1 2.6773049149209074e+00 6.2298936432491940e+00 1.7930982354849903e+01 -53 -44 65
93 1 1.8967657182469061e+01 4.8206262518227208e+00 1.6765829190693886e+01 -35 -14 17
478 1 1.1260125244041127e+01 9.8381966837826624e+00 1.8143306601678411e+01 32 -6 33
335 1 6.0427666098226469e+00 5.4003395338260356e+00 1.9126244035845900e+01 20 -19 95
396 1 2.2382357815512449e+01 2.5858534969210960e+00 2.3026838601258969e+01 -9 -2 20
466 1 1.1273930775122034e+01 1.5829006833259134e+00 1.8488992550516212e+01 106 -28 -22
448 1 2.0605708328860356e+01 3.6556499708445425e+00 2.1221872126509904e+01 6 -37 -20
431 1 1.3065559961288056e+00 5.2534741428364056e+00 2.4433226697074673e+01 -63 -37 -36
209 1 9.5712961271446400e+00 4.7862118117956252e+00 2.2827413257467782e+01 5 8 -45
13 1 1.2874970621165641e+01 1.2416636098195641e+01 2.2333034951407907e+01 132 -9 68
344 1 7.4021132142466213e+00 1.1971485541379625e+00 1.7871784491163019e+01 32 -49 5
457 1 1.8564820137821414e+01 4.9927799961386370e+00 2.2234387425258117e+01 -18 -39 69
74 1 2.4488531868778033e+01 1.4100677537113273e+00 1.8053093254293728e+01 4 55 -9
402 1 1.2143219288640335e+01 4.9132272685176845e+00 2.3787711094203683e+01 38 55 -31
302 1 7.7975727808684310e+00 2.6917654386057723e+00 2.2775579920453080e+01 39 -69 -30
238 1 1.0789251830932201e+01 4.0592859621793416e+00 1.7732913279640645e+01 53 18 -15
223 1 1.2699101668887161e+01 5.7421263736992554e+00 1.7298061732415114e+01 107 36 7
171 1 2.8236492170081831e+00 8.8095287182721442e+00 1.9159099917638610e+01 -39 45 15
148 1 1.7775075401851534e+01 7.4885684574380926e+00 2.1604962328366746e+01 -45 44 72
481 1 2.1736849794108192e+01 1.1040014961007504e+01 2.3641197402646206e+01 40 -12 -18
92 1 8.7129548215476547e+00 7.0720417466768719e+00 2.4158538840784566e+01 -49 56 -102
261 1 2.0091997761955462e+00 6.7716546512386655e+00 2.2301798861377385e+01 9 35 -116
446 1 9.5271875497180307e+00 8.8013505537772510e+00 2.2345339673819780e+01 24 33 -15
199 1 5.1653889307487022e+00 3.5655428784977086e+00 2.2649356056685399e+01 21 69 -25
188 1 2.1998612102404088e+01 4.6344507122224448e+00 1.6973810260136155e+01 5 -2 65
440 1 1.2904560215054433e+01 6.3698818314816359e+00 1.9857417865483850e+01 -30 -37 118
257 1 1.6517940684996447e+01 1.4963759102707688e+00 1.6695926923959906e+01 -20 13 46
203 1 1.6794399789811273e+01 6.1417602985071653e+00 1.7736916411813368e+01 107 -115 76
124 1 4.8968991463065716e+00 5.2208524954907443e+00 1.6695830110413560e+01 -53 154 -29
239 1 4.8799118682279259e+00 6.2674560908400485e+00 2.1766957127771828e+01 44 -22 4
508 1 4.8888519401976216e-01 3.1141093846575063e+00 2.2769274523803443e+01 9 23 -66
374 1 6.8710135603668665e-01 5.2566939237869512e+00 1.9846358757256073e+01 -13 39 -8
497 1 1.7063960277800255e+01 1.2843422423445052e+00 2.1348954518160369e+01 -1 30 27
340 1 6.5107919307888587e+00 1.1397963485445951e+01 1.8248849339536047e+01 52 40 13
350 1 1.6428365709934742e+01 1.1236136027533130e+01 2.4626052402602348e+01 28 -2 40
399 1 1.0157846341290000e+01 1.2137923757517624e+01 2.1425521965984583e+01 21 62 -19
17 1 1.5529050772147110e+01 1.0047966771903189e+01 1.9283089023448159e+01 43 17 26
271 1 7.8943985737941551e+00 1.2389025702652479e+01 2.3285392241707690e+01 40 30 -46
366 1 9.4455608296858689e+00 1.0620071972663343e+01 2.4586410037889859e+01 155 -5 -46
509 1 4.5791505202557854e+00 1.4948907896953352e+00 2.4334671306139430e+01 116 52 -79
206 1 1.7256433915779699e+01 1.2357531927488747e+01 2.0798257154882887e+01 18 -87 25
348 1 1.2430505182345474e+01 3.1578951272912903e-01 2.2897807914869610e+01 -9 -17 19
219 1 1.3559233209425209e+01 7.1267289839222636e+00 2.4542778481423770e+01 -23 -15 -99
364 1 9.2759454947503333e+00 2.4285977174373929e+01 5.3109699094693701e+00 109 14 -17
107 1 1.6402488374417281e+01 2.4127712825288945e+01 3.6257068506965391e+00 -32 58 -134
453 1 1.7396259089433830e+01 1.9281965082798678e+01 6.9897758310813893e+00 61 -3 7
27 1 1.4044086458320788e+01 1.8570185520620903e+01 2.7170140671063705e+00 16 -26 59
85 1 1.5016025894050447e+01 1.5004660018913579e+01 2.7272175055359482e+00 18 41 -106
310 1 1.9518892828311184e+01 2.0103702606568252e+01 1.4427748345929829e+00 -11 -16 14
167 1 2.3581390579729643e+01 1.8089021185623864e+01 5.7207407513006912e+00 24 -20 5
341 1 1.6465176165235448e+01 1.8990758867790422e+01 4.3532325726467755e+00 40 -39 62
296 1 1.2108176093549128e+01 1.4477408097512354e+01 2.8335475967676129e+00 -47 -102 59
423 1 5.4448042987330911e+00 1.4315559822699823e+01 2.7230513596367629e+00 -14 6 57
388 1 3.7483417026572816e+00 1.9009427158641202e+01 1.3797653269349315e+00 66 -9 36
104 1 7.0610634372264185e+00 2.1070611615296571e+01 1.3046131059693924e+00 76 20 -18
147 1 1.2956983227599130e+01 2.1464241677555716e+01 5.6873296706869407e+00 -32 32 92
82 1 2.1303955561661738e+01 2.3110789569804904e+01 7.9398066385031330e-01 -4 -5 7
464 1 1.4551046463425552e+01 2.2133376693388659e+01 1.3662944248856554e+00 15 21 -24
367 1 9.7799733619943474e+00 1.2900275916638471e+01 1.8859781164243778e+00 3 -2 64
229 1 1.1377923292738856e+01 1.5997741769048046e+01 2.3379394285415803e-01 44 24 15
112 1 2.3490613771639829e+01 2.2876447790900411e+01 3.9075764861680340e+00 18 90 -38
307 1 8.6273225400764328e+00 1.2857794999656603e+01 7.4300900088575208e+00 -48 101 -5
89 1 1.9173490536949034e+00 1.7678606141227725e+01 6.2035679050669446e+00 -8 17 -176
106 1 1.1467079436421942e+01 1.6547226639203341e+01 4.6679117074324372e+00 14 -16 2
81 1 4.7844520907330175e+00 1.7545864446617834e+01 6.1568103361467914e+00 47 98 -15
168 1 9.6752209482218177e-01 1.4362365895801391e+01 3.7026084234768089e+00 97 -53 -61
406 1 4.5256600474456610e+00 2.2054912486737237e+01 1.7910415129877149e+00 44 141 4
31 1 1.9545920201774096e+00 1.2471101775010931e+01 1.8217008721874501e+00 -49 -22 124
233 1 1.6001387139393282e+00 1.4916358035473772e+01 6.2237715882772351e+00 -10 -28 -30
43 1 2.2050784973414085e+01 2.0745133391950322e+01 2.4767499970774471e+00 -10 -8 14
9 1 6.4744141852032397e+00 1.6604211664573381e+01 1.4035069566312177e+00 -36 32 12
392 1 9.3658196560525990e+00 2.0497099026175103e+01 4.2723663508550445e+00 17 14 -61
44 1 1.2938457804309486e+01 1.9570539868345993e+01 7.6310990876031637e+00 -24 -36 97
201 1 1.5521044665728299e+01 2.1679339549128205e+01 5.0193407469790268e+00 -97 -50 36
265 1 1.9568501781042574e+01 1.4526103982970895e+01 4.8224911404627235e+00 -75 -49 65
352 1 2.1368845133070479e+01 1.5207346904814740e+01 1.0962846179404047e+00 46 -35 -73
256 1 2.3326119782513690e+01 1.6056555852371609e+01 2.9043520329673789e+00 39 16 -36
227 1 1.1219582769520084e+01 1.8580949970357384e+01 3.0075413689518382e+00 135 99 -5
339 1 2.3501483933887080e+01 1.4372061252565661e+01 7.4281263805116042e+00 34 47 0
510 1 1.2598370693447928e+01 1.6849868081229374e+01 7.2801909046676627e+00 -62 142 31
12 1 2.3983896075169731e+01 1.8773642774070346e+01 2.0779062820845744e+00 54 -39 64
237 1 4.7095796601916078e+00 1.9596287133169110e+01 4.1609220485344167e+00 16 -33 -21
379 1 1.2320490483493680e+01 2.0635385110356921e+01 1.8749429546682146e+00 140 -6 61
455 1 2.1978653406048782e+01 1.6604814624164170e+01 7.4363245280568480e+00 46 99 17
353 1 1.6894972149072757e+01 2.2983809509232795e+01 7.2818922860216801e+00 -171 64 100
132 1 3.3657431436840004e+00 2.3919560897207973e+01 3.6868359271634557e+00 -45 -4 -67
372 1 2.3321182288272404e+01 2.1148717945841145e+01 6.1653165725816859e+00 13 -6 17
165 1 2.1082858270619976e+01 1.6961629009957058e+01 4.5627008951205443e+00 93 -14 103
409 1 1.9993021102794899e+01 2.3944536170203087e+01 5.5371380025661621e+00 -61 81 62
297 1 1.9212350813756143e+00 1.8617495904928081e+01 3.3899366733055496e+00 7 34 -16
300 1 1.8504391597219797e+01 2.2847889713859125e+01 4.0189015026224262e-01 -83 68 27
327 1 3.5453942640693970e+00 2.1028097741206363e+01 6.1937086517824049e+00 85 -3 0
407 1 4.5035593640851372e+00 1.4797929932747675e+01 5.3992169803402330e+00 22 5 59
447 1 1.3785967469354672e+01 2.4347263027896126e+01 2.9469567240022019e+00 -7 -121 26
426 1 5.9437599547317452e+00 2.3968068610709075e+01 4.6883107879457908e+00 87 -10 64
346 1 1.7597423759336639e+00 2.1516921952240082e+01 3.7536779695520681e+00 45 30 -113
432 1 1.4963984447426306e+01 1.6939310313110994e+01 6.4575172348707877e-01 33 -57 7
496 1 1.9225269353974355e+01 2.1410057799522512e+01 6.5896293674910495e+00 -7 -25 19
436 1 1.0552589725839026e+01 2.4220989143168691e+01 7.7352344627587479e+00 47 69 27
192 1 7.2725024415445940e+00 1.8907845856427311e+01 3.2624191137999654e+00 -78 63 -52
236 1 2.1076178867044476e+01 1.9954427618723866e+01 4.9830677774938765e+00 42 81 63
266 1 5.7853163898901094e+00 2.2363566991226527e+01 6.8185761615973561e+00 28 -59 15
232 1 1.8530894199882727e+01 1.7824464782338520e+01 3.0609244102972570e+00 92 38 27
208 1 2.9077349955295282e+00 1.5999453424268536e+01 3.1609452579763961e+00 27 86 -9
390 1 2.4370413466435075e+01 2.3826384376210967e+01 1.2886429117377625e+00 -13 -41 -20
324 1 9.1556229690760009e+00 1.7531852976143991e+01 1.7022731454050621e+00 2 -56 77
359 1 1.3070092679316687e+00 2.2530217893773631e+01 6.6536616533153436e+00 -37 49 8
190 1 2.1888115827981121e+01 1.3142158585175471e+01 5.3873681971615142e+00 93 87 24
320 1 2.4303682663390720e+01 2.1055914849933114e+01 6.8848207060769173e-01 25 86 34
369 1 1.7030038379162541e+01 2.1256391917451705e+01 2.4368902043638685e+00 2 56 3
394 1 7.4821689670984579e+00 1.7752521961966526e+01 5.7559264196235995e+00 -109 -5 -18
189 1 1.5703703625843458e+01 1.4667941281359106e+01 6.7789782249675730e+00 116 -49 -36
116 1 1.1325215070172609e+01 2.2450858874954978e+01 3.7680973345106428e+00 -49 2 1
16 1 1.8617165735898084e+01 1.2556536596567183e+01 3.1460871829510313e+00 142 92 5
470 1 7.9536347519076269e+00 2.0456375499565254e+01 6.9607060545613475e+00 25 -33 -134
197 1 9.0236302679616465e+00 1.5681221163210719e+01 6.4977501457679638e+00 9 39 54
129 1 1.9366068831641314e+01 1.7353423537865606e+01 6.9092675795138758e+00 -44 -37 -83
472 1 1.4842637068694259e+01 1.6612878069056894e+01 5.0971316476520752e+00 30 -29 67
149 1 8.0437473414839360e+00 2.3130096659766973e+01 3.1664250793231408e+00 -51 53 -6
443 1 1.8658759737957620e+01 1.4570689112120869e+01 7.2196224586134781e+00 -105 20 -14
215 1 1.8630037802185264e+01 1.5224448893498716e+01 1.9947781315753097e+00 1 -141 -41
285 1 6.2791376914819326e+00 1.3004624824999684e+01 6.0191830656874350e+00 -26 77 -8
194 1 7.4990045100284490e+00 1.2668833047094440e+01 3.4241979425422486e+00 46 106 9
373 1 1.3038236441281924e+01 2.3952446629181264e+01 6.8661053780294123e+00 51 42 -45
127 1 3.1971389518299427e+00 1.6432663294558793e+01 1.7278875686408979e-01 53 68 80
363 1 3.2213462087125726e+00 1.2865712651425168e+01 7.5430502837328035e+00 -16 -37 17
109 1 1.0235096367135515e+01 1.9849118410501596e+01 8.2519400333859458e+00 -83 -37 -50
118 1 1.5942835348574418e+01 2.0745847054009420e+01 1.0794885575440700e+01 -30 132 -81
416 1 3.7886895138391123e+00 1.6534410742495563e+01 1.4514818522962402e+01 -9 -34 22
427 1 2.1882587683049053e+01 2.2745192276573320e+01 9.4501198534210680e+00 124 -16 27
138 1 5.8435259314586379e+00 2.1315591350691086e+01 1.4829549114811488e+01 187 42 19
207 1 2.4570724471940089e+01 1.6755103901511827e+01 1.1098853416149529e+01 35 -31 3
248 1 1.7124556101321275e+01 1.8438781942572007e+01 1.1497764273442796e+01 -40 25 -1
458 1 4.2944046238776235e+00 1.9402395440132217e+01 1.1236852946296422e+01 -38 47 -2
368 1 1.2855005724697634e+01 1.8170308539375714e+01 1.1988760251346271e+01 44 -36 45
90 1 2.2025437479191506e+01 1.7600358298671654e+01 1.1934930651331420e+01 -49 -44 -70
278 1 8.6374970066009904e-01 1.3932720140949082e+01 1.1431295715978541e+01 -91 -105 45
78 1 2.1488703252563102e+01 1.4853081132987032e+01 1.4257235261061794e+01 -20 -58 -24
267 1 1.9180792958761682e+01 1.7161248702392189e+01 1.5720922079253731e+01 -96 66 -56
467 1 1.4997695993465044e+01 1.7794184644072633e+01 1.6371261040578744e+01 -62 95 48