LAMMPS (4 Jan 2019)
Reading data file ...
  orthogonal box = (0.162109 0.162109 0.162109) to (24.6729 24.6729 24.6729)
  1 by 2 by 3 MPI processor grid
  reading atoms ...
  512 atoms
  reading velocities ...
  512 velocities
Neighbor list info ...
  update every 1 steps, delay 0 steps, check yes
  max neighbors/atom: 2000, page size: 100000
  master list distance cutoff = 6.3065
  ghost atom cutoff = 6.3065
  1 neighbor lists, perpetual/occasional/extra = 1 0 0
  (1) pair sw, perpetual
      attributes: full, newton on
      pair build: full/nsq
      stencil: none
      bin: none
Setting up Verlet run ...
  Unit style    : real
  Current step  : 0
  Time step     : 5
Per MPI rank memory allocation (min/avg/max) = 2.697 | 2.698 | 2.698 Mbytes
---------------- Step        0 ----- CPU =      0.0000 (sec) ----------------
Time     = 0.000000 Temp     = 221.624391 Press    = 13064.357885 
PotEng   = -10.110295 KinEng   = 0.659330 Lx       = 24.510782 
Ly       = 24.510782 Lz       = 24.510782 Density  = 1.040133 
Volume   = 14725.549142 
---------------- Step    10000 ----- CPU =      5.6403 (sec) ----------------
Time     = 50000.000000 Temp     = 233.735506 Press    = 1452.314304 
PotEng   = -10.445660 KinEng   = 0.695360 Lx       = 24.703699 
Ly       = 24.703699 Lz       = 24.703699 Density  = 1.015955 
Volume   = 15075.994367 
---------------- Step    20000 ----- CPU =     11.2735 (sec) ----------------
Time     = 100000.000000 Temp     = 230.319749 Press    = 1035.349658 
PotEng   = -10.539072 KinEng   = 0.685199 Lx       = 24.719074 
Ly       = 24.719074 Lz       = 24.719074 Density  = 1.014061 
Volume   = 15104.160399 
---------------- Step    30000 ----- CPU =     16.9346 (sec) ----------------
Time     = 150000.000000 Temp     = 232.272332 Press    = 1843.273682 
PotEng   = -10.432111 KinEng   = 0.691007 Lx       = 24.574623 
Ly       = 24.574623 Lz       = 24.574623 Density  = 1.032048 
Volume   = 14840.912270 
---------------- Step    40000 ----- CPU =     22.6198 (sec) ----------------
Time     = 200000.000000 Temp     = 229.530674 Press    = 438.808499 
PotEng   = -10.522839 KinEng   = 0.682851 Lx       = 24.766134 
Ly       = 24.766134 Lz       = 24.766134 Density  = 1.008291 
Volume   = 15190.590353 
---------------- Step    50000 ----- CPU =     28.3271 (sec) ----------------
Time     = 250000.000000 Temp     = 231.983099 Press    = 1072.949975 
PotEng   = -10.488033 KinEng   = 0.690147 Lx       = 24.669891 
Ly       = 24.669891 Lz       = 24.669891 Density  = 1.020138 
Volume   = 15014.183315 
---------------- Step    60000 ----- CPU =     33.9805 (sec) ----------------
Time     = 300000.000000 Temp     = 234.869620 Press    = 197.851944 
PotEng   = -10.526292 KinEng   = 0.698734 Lx       = 24.643497 
Ly       = 24.643497 Lz       = 24.643497 Density  = 1.023419 
Volume   = 14966.044514 
---------------- Step    70000 ----- CPU =     39.6985 (sec) ----------------
Time     = 350000.000000 Temp     = 233.366795 Press    = 2198.521797 
PotEng   = -10.447085 KinEng   = 0.694263 Lx       = 24.599318 
Ly       = 24.599318 Lz       = 24.599318 Density  = 1.028943 
Volume   = 14885.697864 
---------------- Step    80000 ----- CPU =     45.5652 (sec) ----------------
Time     = 400000.000000 Temp     = 221.861325 Press    = 121.203794 
PotEng   = -10.423485 KinEng   = 0.660035 Lx       = 24.642112 
Ly       = 24.642112 Lz       = 24.642112 Density  = 1.023592 
Volume   = 14963.520662 
---------------- Step    90000 ----- CPU =     51.4731 (sec) ----------------
Time     = 450000.000000 Temp     = 230.620812 Press    = 1640.778866 
PotEng   = -10.491235 KinEng   = 0.686094 Lx       = 24.594508 
Ly       = 24.594508 Lz       = 24.594508 Density  = 1.029547 
Volume   = 14876.967787 
---------------- Step   100000 ----- CPU =     57.3713 (sec) ----------------
Time     = 500000.000000 Temp     = 229.031164 Press    = 2059.870388 
PotEng   = -10.479784 KinEng   = 0.681365 Lx       = 24.563814 
Ly       = 24.563814 Lz       = 24.563814 Density  = 1.033411 
Volume   = 14821.336970 
---------------- Step   110000 ----- CPU =     63.2590 (sec) ----------------
Time     = 550000.000000 Temp     = 223.708767 Press    = 1521.496945 
PotEng   = -10.446643 KinEng   = 0.665531 Lx       = 24.665022 
Ly       = 24.665022 Lz       = 24.665022 Density  = 1.020742 
Volume   = 15005.294728 
---------------- Step   120000 ----- CPU =     69.0968 (sec) ----------------
Time     = 600000.000000 Temp     = 233.349931 Press    = 1889.268654 
PotEng   = -10.465154 KinEng   = 0.694213 Lx       = 24.579186 
Ly       = 24.579186 Lz       = 24.579186 Density  = 1.031473 
Volume   = 14849.181453 
---------------- Step   130000 ----- CPU =     74.9348 (sec) ----------------
Time     = 650000.000000 Temp     = 233.532207 Press    = 1798.818735 
PotEng   = -10.489392 KinEng   = 0.694756 Lx       = 24.635743 
Ly       = 24.635743 Lz       = 24.635743 Density  = 1.024386 
Volume   = 14951.920873 
---------------- Step   140000 ----- CPU =     81.4425 (sec) ----------------
Time     = 700000.000000 Temp     = 228.519920 Press    = 1429.976857 
PotEng   = -10.506321 KinEng   = 0.679844 Lx       = 24.637717 
Ly       = 24.637717 Lz       = 24.637717 Density  = 1.024140 
Volume   = 14955.514706 
---------------- Step   150000 ----- CPU =     88.0757 (sec) ----------------
Time     = 750000.000000 Temp     = 228.505482 Press    = 922.404625 
PotEng   = -10.426474 KinEng   = 0.679801 Lx       = 24.695370 
Ly       = 24.695370 Lz       = 24.695370 Density  = 1.016983 
Volume   = 15060.751003 
---------------- Step   160000 ----- CPU =     94.6854 (sec) ----------------
Time     = 800000.000000 Temp     = 227.383796 Press    = 1295.021987 
PotEng   = -10.505342 KinEng   = 0.676464 Lx       = 24.603993 
Ly       = 24.603993 Lz       = 24.603993 Density  = 1.028357 
Volume   = 14894.186831 
---------------- Step   170000 ----- CPU =    101.3573 (sec) ----------------
Time     = 850000.000000 Temp     = 250.936154 Press    = 1974.168078 
PotEng   = -10.506973 KinEng   = 0.746532 Lx       = 24.571554 
Ly       = 24.571554 Lz       = 24.571554 Density  = 1.032435 
Volume   = 14835.353044 
---------------- Step   180000 ----- CPU =    107.9358 (sec) ----------------
Time     = 900000.000000 Temp     = 234.426385 Press    = 628.327284 
PotEng   = -10.425979 KinEng   = 0.697416 Lx       = 24.677700 
Ly       = 24.677700 Lz       = 24.677700 Density  = 1.019170 
Volume   = 15028.444357 
---------------- Step   190000 ----- CPU =    114.6005 (sec) ----------------
Time     = 950000.000000 Temp     = 229.985553 Press    = 854.692476 
PotEng   = -10.504747 KinEng   = 0.684204 Lx       = 24.720592 
Ly       = 24.720592 Lz       = 24.720592 Density  = 1.013874 
Volume   = 15106.943502 
---------------- Step   200000 ----- CPU =    121.1489 (sec) ----------------
Time     = 1000000.000000 Temp     = 229.081894 Press    = 1148.496136 
PotEng   = -10.452717 KinEng   = 0.681516 Lx       = 24.631341 
Ly       = 24.631341 Lz       = 24.631341 Density  = 1.024935 
Volume   = 14943.908268 
---------------- Step   210000 ----- CPU =    127.6824 (sec) ----------------
Time     = 1050000.000000 Temp     = 234.101526 Press    = 981.014374 
PotEng   = -10.494612 KinEng   = 0.696449 Lx       = 24.631155 
Ly       = 24.631155 Lz       = 24.631155 Density  = 1.024958 
Volume   = 14943.569173 
---------------- Step   220000 ----- CPU =    134.2904 (sec) ----------------
Time     = 1100000.000000 Temp     = 232.381398 Press    = 496.796163 
PotEng   = -10.464081 KinEng   = 0.691332 Lx       = 24.711717 
Ly       = 24.711717 Lz       = 24.711717 Density  = 1.014967 
Volume   = 15090.678520 
---------------- Step   230000 ----- CPU =    140.8007 (sec) ----------------
Time     = 1150000.000000 Temp     = 230.130031 Press    = 950.715615 
PotEng   = -10.466534 KinEng   = 0.684634 Lx       = 24.637658 
Ly       = 24.637658 Lz       = 24.637658 Density  = 1.024147 
Volume   = 14955.408273 
---------------- Step   240000 ----- CPU =    147.3161 (sec) ----------------
Time     = 1200000.000000 Temp     = 225.579085 Press    = 203.319603 
PotEng   = -10.463125 KinEng   = 0.671095 Lx       = 24.699571 
Ly       = 24.699571 Lz       = 24.699571 Density  = 1.016465 
Volume   = 15068.437196 
---------------- Step   250000 ----- CPU =    153.8625 (sec) ----------------
Time     = 1250000.000000 Temp     = 225.182196 Press    = 393.470690 
PotEng   = -10.512314 KinEng   = 0.669914 Lx       = 24.719935 
Ly       = 24.719935 Lz       = 24.719935 Density  = 1.013955 
Volume   = 15105.738471 
---------------- Step   260000 ----- CPU =    160.4792 (sec) ----------------
Time     = 1300000.000000 Temp     = 232.307839 Press    = 878.750976 
PotEng   = -10.505344 KinEng   = 0.691113 Lx       = 24.658101 
Ly       = 24.658101 Lz       = 24.658101 Density  = 1.021602 
Volume   = 14992.666526 
---------------- Step   270000 ----- CPU =    167.0109 (sec) ----------------
Time     = 1350000.000000 Temp     = 218.026708 Press    = 244.128549 
PotEng   = -10.442990 KinEng   = 0.648627 Lx       = 24.732578 
Ly       = 24.732578 Lz       = 24.732578 Density  = 1.012401 
Volume   = 15128.928161 
---------------- Step   280000 ----- CPU =    173.9198 (sec) ----------------
Time     = 1400000.000000 Temp     = 227.037760 Press    = 2148.983558 
PotEng   = -10.505442 KinEng   = 0.675435 Lx       = 24.556948 
Ly       = 24.556948 Lz       = 24.556948 Density  = 1.034278 
Volume   = 14808.913547 
---------------- Step   290000 ----- CPU =    180.5272 (sec) ----------------
Time     = 1450000.000000 Temp     = 227.890835 Press    = 1292.333389 
PotEng   = -10.494267 KinEng   = 0.677973 Lx       = 24.701041 
Ly       = 24.701041 Lz       = 24.701041 Density  = 1.016283 
Volume   = 15071.128871 
---------------- Step   300000 ----- CPU =    187.1184 (sec) ----------------
Time     = 1500000.000000 Temp     = 228.554583 Press    = 1737.610560 
PotEng   = -10.454411 KinEng   = 0.679947 Lx       = 24.557413 
Ly       = 24.557413 Lz       = 24.557413 Density  = 1.034219 
Volume   = 14809.753883 
---------------- Step   310000 ----- CPU =    193.8867 (sec) ----------------
Time     = 1550000.000000 Temp     = 227.247260 Press    = 656.491459 
PotEng   = -10.442960 KinEng   = 0.676058 Lx       = 24.586547 
Ly       = 24.586547 Lz       = 24.586547 Density  = 1.030547 
Volume   = 14862.525402 
---------------- Step   320000 ----- CPU =    200.3904 (sec) ----------------
Time     = 1600000.000000 Temp     = 244.542087 Press    = 1533.474360 
PotEng   = -10.428971 KinEng   = 0.727510 Lx       = 24.623804 
Ly       = 24.623804 Lz       = 24.623804 Density  = 1.025877 
Volume   = 14930.192765 
---------------- Step   330000 ----- CPU =    206.9863 (sec) ----------------
Time     = 1650000.000000 Temp     = 221.662748 Press    = 1772.561672 
PotEng   = -10.442702 KinEng   = 0.659444 Lx       = 24.532165 
Ly       = 24.532165 Lz       = 24.532165 Density  = 1.037416 
Volume   = 14764.122566 
---------------- Step   340000 ----- CPU =    213.5698 (sec) ----------------
Time     = 1700000.000000 Temp     = 235.125308 Press    = -83.498442 
PotEng   = -10.384967 KinEng   = 0.699495 Lx       = 24.670381 
Ly       = 24.670381 Lz       = 24.670381 Density  = 1.020077 
Volume   = 15015.077770 
---------------- Step   350000 ----- CPU =    220.1854 (sec) ----------------
Time     = 1750000.000000 Temp     = 215.513480 Press    = 832.463490 
PotEng   = -10.447468 KinEng   = 0.641150 Lx       = 24.635411 
Ly       = 24.635411 Lz       = 24.635411 Density  = 1.024427 
Volume   = 14951.317339 
---------------- Step   360000 ----- CPU =    226.7612 (sec) ----------------
Time     = 1800000.000000 Temp     = 239.914254 Press    = 654.103625 
PotEng   = -10.526565 KinEng   = 0.713742 Lx       = 24.624156 
Ly       = 24.624156 Lz       = 24.624156 Density  = 1.025832 
Volume   = 14930.834079 
---------------- Step   370000 ----- CPU =    233.3359 (sec) ----------------
Time     = 1850000.000000 Temp     = 225.676464 Press    = 642.564973 
PotEng   = -10.460035 KinEng   = 0.671385 Lx       = 24.692323 
Ly       = 24.692323 Lz       = 24.692323 Density  = 1.017360 
Volume   = 15055.176878 
---------------- Step   380000 ----- CPU =    239.9475 (sec) ----------------
Time     = 1900000.000000 Temp     = 220.348180 Press    = -145.047439 
PotEng   = -10.379592 KinEng   = 0.655533 Lx       = 24.669963 
Ly       = 24.669963 Lz       = 24.669963 Density  = 1.020129 
Volume   = 15014.313969 
---------------- Step   390000 ----- CPU =    246.5295 (sec) ----------------
Time     = 1950000.000000 Temp     = 227.752983 Press    = 120.277474 
PotEng   = -10.432862 KinEng   = 0.677562 Lx       = 24.719716 
Ly       = 24.719716 Lz       = 24.719716 Density  = 1.013982 
Volume   = 15105.336649 
---------------- Step   400000 ----- CPU =    253.1642 (sec) ----------------
Time     = 2000000.000000 Temp     = 232.986276 Press    = 1145.775968 
PotEng   = -10.450128 KinEng   = 0.693131 Lx       = 24.616308 
Ly       = 24.616308 Lz       = 24.616308 Density  = 1.026814 
Volume   = 14916.561809 
---------------- Step   410000 ----- CPU =    259.7251 (sec) ----------------
Time     = 2050000.000000 Temp     = 230.668157 Press    = 680.513258 
PotEng   = -10.491788 KinEng   = 0.686235 Lx       = 24.634014 
Ly       = 24.634014 Lz       = 24.634014 Density  = 1.024601 
Volume   = 14948.773622 
---------------- Step   420000 ----- CPU =    266.3395 (sec) ----------------
Time     = 2100000.000000 Temp     = 222.836183 Press    = 721.015028 
PotEng   = -10.392012 KinEng   = 0.662935 Lx       = 24.680173 
Ly       = 24.680173 Lz       = 24.680173 Density  = 1.018863 
Volume   = 15032.963213 
---------------- Step   430000 ----- CPU =    272.9181 (sec) ----------------
Time     = 2150000.000000 Temp     = 238.814328 Press    = 410.574771 
PotEng   = -10.510630 KinEng   = 0.710470 Lx       = 24.638622 
Ly       = 24.638622 Lz       = 24.638622 Density  = 1.024027 
Volume   = 14957.163320 
---------------- Step   440000 ----- CPU =    279.4286 (sec) ----------------
Time     = 2200000.000000 Temp     = 226.269278 Press    = 579.980936 
PotEng   = -10.510510 KinEng   = 0.673148 Lx       = 24.665671 
Ly       = 24.665671 Lz       = 24.665671 Density  = 1.020661 
Volume   = 15006.479723 
---------------- Step   450000 ----- CPU =    286.0078 (sec) ----------------
Time     = 2250000.000000 Temp     = 221.848417 Press    = 1176.994107 
PotEng   = -10.505644 KinEng   = 0.659996 Lx       = 24.613599 
Ly       = 24.613599 Lz       = 24.613599 Density  = 1.027153 
Volume   = 14911.637554 
---------------- Step   460000 ----- CPU =    292.5448 (sec) ----------------
Time     = 2300000.000000 Temp     = 239.496632 Press    = 1304.899763 
PotEng   = -10.414313 KinEng   = 0.712500 Lx       = 24.634936 
Ly       = 24.634936 Lz       = 24.634936 Density  = 1.024486 
Volume   = 14950.452138 
---------------- Step   470000 ----- CPU =    299.0486 (sec) ----------------
Time     = 2350000.000000 Temp     = 232.510593 Press    = 2051.485953 
PotEng   = -10.483798 KinEng   = 0.691716 Lx       = 24.575650 
Ly       = 24.575650 Lz       = 24.575650 Density  = 1.031919 
Volume   = 14842.773701 
---------------- Step   480000 ----- CPU =    305.6895 (sec) ----------------
Time     = 2400000.000000 Temp     = 224.211997 Press    = 1100.298520 
PotEng   = -10.469118 KinEng   = 0.667028 Lx       = 24.594713 
Ly       = 24.594713 Lz       = 24.594713 Density  = 1.029521 
Volume   = 14877.338864 
---------------- Step   490000 ----- CPU =    312.3134 (sec) ----------------
Time     = 2450000.000000 Temp     = 233.607516 Press    = 1542.194355 
PotEng   = -10.485783 KinEng   = 0.694980 Lx       = 24.633531 
Ly       = 24.633531 Lz       = 24.633531 Density  = 1.024662 
Volume   = 14947.893629 
---------------- Step   500000 ----- CPU =    318.8861 (sec) ----------------
Time     = 2500000.000000 Temp     = 222.905350 Press    = 1265.448847 
PotEng   = -10.479330 KinEng   = 0.663141 Lx       = 24.744306 
Ly       = 24.744306 Lz       = 24.744306 Density  = 1.010962 
Volume   = 15150.460428 
---------------- Step   510000 ----- CPU =    325.4907 (sec) ----------------
Time     = 2550000.000000 Temp     = 233.282888 Press    = 1249.941085 
PotEng   = -10.451942 KinEng   = 0.694014 Lx       = 24.650277 
Ly       = 24.650277 Lz       = 24.650277 Density  = 1.022575 
Volume   = 14978.398857 
---------------- Step   520000 ----- CPU =    332.0838 (sec) ----------------
Time     = 2600000.000000 Temp     = 221.635171 Press    = 1466.250353 
PotEng   = -10.488274 KinEng   = 0.659362 Lx       = 24.618864 
Ly       = 24.618864 Lz       = 24.618864 Density  = 1.026494 
Volume   = 14921.209036 
---------------- Step   530000 ----- CPU =    338.7188 (sec) ----------------
Time     = 2650000.000000 Temp     = 230.365042 Press    = 1553.533871 
PotEng   = -10.425624 KinEng   = 0.685333 Lx       = 24.610642 
Ly       = 24.610642 Lz       = 24.610642 Density  = 1.027523 
Volume   = 14906.264764 
---------------- Step   540000 ----- CPU =    345.3277 (sec) ----------------
Time     = 2700000.000000 Temp     = 241.064580 Press    = 627.998977 
PotEng   = -10.457383 KinEng   = 0.717164 Lx       = 24.643649 
Ly       = 24.643649 Lz       = 24.643649 Density  = 1.023400 
Volume   = 14966.321048 
---------------- Step   550000 ----- CPU =    351.8443 (sec) ----------------
Time     = 2750000.000000 Temp     = 230.791362 Press    = 1346.916342 
PotEng   = -10.462311 KinEng   = 0.686602 Lx       = 24.664702 
Ly       = 24.664702 Lz       = 24.664702 Density  = 1.020782 
Volume   = 15004.711167 
---------------- Step   560000 ----- CPU =    358.4523 (sec) ----------------
Time     = 2800000.000000 Temp     = 245.370742 Press    = 492.642315 
PotEng   = -10.407003 KinEng   = 0.729975 Lx       = 24.697053 
Ly       = 24.697053 Lz       = 24.697053 Density  = 1.016776 
Volume   = 15063.829658 
---------------- Step   570000 ----- CPU =    365.0982 (sec) ----------------
Time     = 2850000.000000 Temp     = 226.206132 Press    = 1465.418482 
PotEng   = -10.503809 KinEng   = 0.672961 Lx       = 24.625063 
Ly       = 24.625063 Lz       = 24.625063 Density  = 1.025719 
Volume   = 14932.482986 
---------------- Step   580000 ----- CPU =    371.6775 (sec) ----------------
Time     = 2900000.000000 Temp     = 223.950619 Press    = 1129.088277 
PotEng   = -10.449332 KinEng   = 0.666250 Lx       = 24.598465 
Ly       = 24.598465 Lz       = 24.598465 Density  = 1.029050 
Volume   = 14884.150254 
---------------- Step   590000 ----- CPU =    378.2935 (sec) ----------------
Time     = 2950000.000000 Temp     = 221.033456 Press    = 173.713872 
PotEng   = -10.491331 KinEng   = 0.657572 Lx       = 24.721194 
Ly       = 24.721194 Lz       = 24.721194 Density  = 1.013800 
Volume   = 15108.047070 
---------------- Step   600000 ----- CPU =    384.8976 (sec) ----------------
Time     = 3000000.000000 Temp     = 234.178445 Press    = 782.028753 
PotEng   = -10.426163 KinEng   = 0.696678 Lx       = 24.701597 
Ly       = 24.701597 Lz       = 24.701597 Density  = 1.016215 
Volume   = 15072.145624 
---------------- Step   610000 ----- CPU =    391.4347 (sec) ----------------
Time     = 3050000.000000 Temp     = 225.213010 Press    = 537.172347 
PotEng   = -10.481368 KinEng   = 0.670006 Lx       = 24.657276 
Ly       = 24.657276 Lz       = 24.657276 Density  = 1.021704 
Volume   = 14991.161142 
---------------- Step   620000 ----- CPU =    398.1110 (sec) ----------------
Time     = 3100000.000000 Temp     = 242.228652 Press    = 1300.119023 
PotEng   = -10.393925 KinEng   = 0.720627 Lx       = 24.638901 
Ly       = 24.638901 Lz       = 24.638901 Density  = 1.023992 
Volume   = 14957.670937 
---------------- Step   630000 ----- CPU =    404.6464 (sec) ----------------
Time     = 3150000.000000 Temp     = 238.158256 Press    = 1323.030033 
PotEng   = -10.435003 KinEng   = 0.708518 Lx       = 24.633044 
Ly       = 24.633044 Lz       = 24.633044 Density  = 1.024723 
Volume   = 14947.006905 
---------------- Step   640000 ----- CPU =    411.2127 (sec) ----------------
Time     = 3200000.000000 Temp     = 236.322169 Press    = 2404.185298 
PotEng   = -10.396891 KinEng   = 0.703056 Lx       = 24.568623 
Ly       = 24.568623 Lz       = 24.568623 Density  = 1.032804 
Volume   = 14830.043989 
---------------- Step   650000 ----- CPU =    417.8275 (sec) ----------------
Time     = 3250000.000000 Temp     = 215.495765 Press    = 249.767815 
PotEng   = -10.507979 KinEng   = 0.641097 Lx       = 24.644737 
Ly       = 24.644737 Lz       = 24.644737 Density  = 1.023265 
Volume   = 14968.303597 
---------------- Step   660000 ----- CPU =    424.3887 (sec) ----------------
Time     = 3300000.000000 Temp     = 231.880710 Press    = 1059.830796 
PotEng   = -10.494191 KinEng   = 0.689842 Lx       = 24.609373 
Ly       = 24.609373 Lz       = 24.609373 Density  = 1.027682 
Volume   = 14903.959699 
---------------- Step   670000 ----- CPU =    430.9985 (sec) ----------------
Time     = 3350000.000000 Temp     = 224.791832 Press    = 921.568575 
PotEng   = -10.431683 KinEng   = 0.668753 Lx       = 24.596948 
Ly       = 24.596948 Lz       = 24.596948 Density  = 1.029240 
Volume   = 14881.395347 
---------------- Step   680000 ----- CPU =    437.6238 (sec) ----------------
Time     = 3400000.000000 Temp     = 224.632448 Press    = 1179.268458 
PotEng   = -10.531914 KinEng   = 0.668279 Lx       = 24.560214 
Ly       = 24.560214 Lz       = 24.560214 Density  = 1.033866 
Volume   = 14814.821302 
---------------- Step   690000 ----- CPU =    444.2486 (sec) ----------------
Time     = 3450000.000000 Temp     = 236.517564 Press    = 1137.475167 
PotEng   = -10.561534 KinEng   = 0.703637 Lx       = 24.680131 
Ly       = 24.680131 Lz       = 24.680131 Density  = 1.018868 
Volume   = 15032.887440 
---------------- Step   700000 ----- CPU =    450.8647 (sec) ----------------
Time     = 3500000.000000 Temp     = 244.659327 Press    = 1745.305443 
PotEng   = -10.504286 KinEng   = 0.727859 Lx       = 24.671471 
Ly       = 24.671471 Lz       = 24.671471 Density  = 1.019942 
Volume   = 15017.066741 
---------------- Step   710000 ----- CPU =    457.3822 (sec) ----------------
Time     = 3550000.000000 Temp     = 222.273622 Press    = 1413.157900 
PotEng   = -10.500211 KinEng   = 0.661261 Lx       = 24.641598 
Ly       = 24.641598 Lz       = 24.641598 Density  = 1.023656 
Volume   = 14962.584763 
---------------- Step   720000 ----- CPU =    463.9985 (sec) ----------------
Time     = 3600000.000000 Temp     = 230.952150 Press    = 1069.918782 
PotEng   = -10.472362 KinEng   = 0.687080 Lx       = 24.668518 
Ly       = 24.668518 Lz       = 24.668518 Density  = 1.020308 
Volume   = 15011.675892 
---------------- Step   730000 ----- CPU =    470.5698 (sec) ----------------
Time     = 3650000.000000 Temp     = 231.535317 Press    = 1471.696466 
PotEng   = -10.510136 KinEng   = 0.688815 Lx       = 24.640867 
Ly       = 24.640867 Lz       = 24.640867 Density  = 1.023747 
Volume   = 14961.252536 
---------------- Step   740000 ----- CPU =    477.4686 (sec) ----------------
Time     = 3700000.000000 Temp     = 237.027659 Press    = 679.295677 
PotEng   = -10.483394 KinEng   = 0.705154 Lx       = 24.617159 
Ly       = 24.617159 Lz       = 24.617159 Density  = 1.026708 
Volume   = 14918.108999 
---------------- Step   750000 ----- CPU =    484.0452 (sec) ----------------
Time     = 3750000.000000 Temp     = 230.450295 Press    = 914.893536 
PotEng   = -10.363775 KinEng   = 0.685587 Lx       = 24.628992 
Ly       = 24.628992 Lz       = 24.628992 Density  = 1.025228 
Volume   = 14939.632062 
---------------- Step   760000 ----- CPU =    490.7709 (sec) ----------------
Time     = 3800000.000000 Temp     = 219.082348 Press    = 896.769251 
PotEng   = -10.452904 KinEng   = 0.651767 Lx       = 24.658555 
Ly       = 24.658555 Lz       = 24.658555 Density  = 1.021545 
Volume   = 14993.494033 
---------------- Step   770000 ----- CPU =    497.3967 (sec) ----------------
Time     = 3850000.000000 Temp     = 227.522892 Press    = 1335.447503 
PotEng   = -10.453391 KinEng   = 0.676878 Lx       = 24.711750 
Ly       = 24.711750 Lz       = 24.711750 Density  = 1.014963 
Volume   = 15090.738665 
---------------- Step   780000 ----- CPU =    503.8444 (sec) ----------------
Time     = 3900000.000000 Temp     = 238.566437 Press    = 1162.588778 
PotEng   = -10.516155 KinEng   = 0.709732 Lx       = 24.664201 
Ly       = 24.664201 Lz       = 24.664201 Density  = 1.020844 
Volume   = 15003.796287 
---------------- Step   790000 ----- CPU =    510.3819 (sec) ----------------
Time     = 3950000.000000 Temp     = 228.770687 Press    = 1104.628160 
PotEng   = -10.482575 KinEng   = 0.680590 Lx       = 24.552543 
Ly       = 24.552543 Lz       = 24.552543 Density  = 1.034835 
Volume   = 14800.945485 
---------------- Step   800000 ----- CPU =    516.9677 (sec) ----------------
Time     = 4000000.000000 Temp     = 231.574151 Press    = 1224.905715 
PotEng   = -10.482295 KinEng   = 0.688930 Lx       = 24.668579 
Ly       = 24.668579 Lz       = 24.668579 Density  = 1.020301 
Volume   = 15011.786448 
---------------- Step   810000 ----- CPU =    523.5522 (sec) ----------------
Time     = 4050000.000000 Temp     = 228.619990 Press    = 721.317382 
PotEng   = -10.485749 KinEng   = 0.680142 Lx       = 24.591835 
Ly       = 24.591835 Lz       = 24.591835 Density  = 1.029883 
Volume   = 14872.117826 
---------------- Step   820000 ----- CPU =    530.1928 (sec) ----------------
Time     = 4100000.000000 Temp     = 222.946246 Press    = 1388.819069 
PotEng   = -10.411227 KinEng   = 0.663262 Lx       = 24.623181 
Ly       = 24.623181 Lz       = 24.623181 Density  = 1.025954 
Volume   = 14929.059599 
---------------- Step   830000 ----- CPU =    536.8294 (sec) ----------------
Time     = 4150000.000000 Temp     = 229.270660 Press    = 595.340470 
PotEng   = -10.487364 KinEng   = 0.682077 Lx       = 24.612766 
Ly       = 24.612766 Lz       = 24.612766 Density  = 1.027257 
Volume   = 14910.123864 
---------------- Step   840000 ----- CPU =    543.4276 (sec) ----------------
Time     = 4200000.000000 Temp     = 244.623830 Press    = 1096.841763 
PotEng   = -10.405018 KinEng   = 0.727753 Lx       = 24.595239 
Ly       = 24.595239 Lz       = 24.595239 Density  = 1.029455 
Volume   = 14878.293755 
---------------- Step   850000 ----- CPU =    550.0064 (sec) ----------------
Time     = 4250000.000000 Temp     = 214.279777 Press    = 1390.848542 
PotEng   = -10.453166 KinEng   = 0.637480 Lx       = 24.644741 
Ly       = 24.644741 Lz       = 24.644741 Density  = 1.023264 
Volume   = 14968.309395 
---------------- Step   860000 ----- CPU =    556.5561 (sec) ----------------
Time     = 4300000.000000 Temp     = 222.076131 Press    = 320.631601 
PotEng   = -10.442920 KinEng   = 0.660674 Lx       = 24.665354 
Ly       = 24.665354 Lz       = 24.665354 Density  = 1.020701 
Volume   = 15005.899648 
---------------- Step   870000 ----- CPU =    563.1463 (sec) ----------------
Time     = 4350000.000000 Temp     = 231.795850 Press    = 631.725552 
PotEng   = -10.559004 KinEng   = 0.689590 Lx       = 24.714144 
Ly       = 24.714144 Lz       = 24.714144 Density  = 1.014668 
Volume   = 15095.124617 
---------------- Step   880000 ----- CPU =    569.7530 (sec) ----------------
Time     = 4400000.000000 Temp     = 236.284230 Press    = 2094.793322 
PotEng   = -10.496200 KinEng   = 0.702943 Lx       = 24.592766 
Ly       = 24.592766 Lz       = 24.592766 Density  = 1.029766 
Volume   = 14873.807472 
---------------- Step   890000 ----- CPU =    576.3281 (sec) ----------------
Time     = 4450000.000000 Temp     = 234.883806 Press    = 964.883063 
PotEng   = -10.500024 KinEng   = 0.698777 Lx       = 24.622376 
Ly       = 24.622376 Lz       = 24.622376 Density  = 1.026055 
Volume   = 14927.596526 
---------------- Step   900000 ----- CPU =    582.8623 (sec) ----------------
Time     = 4500000.000000 Temp     = 226.371893 Press    = 1283.930297 
PotEng   = -10.503627 KinEng   = 0.673454 Lx       = 24.634787 
Ly       = 24.634787 Lz       = 24.634787 Density  = 1.024505 
Volume   = 14950.179841 
---------------- Step   910000 ----- CPU =    589.4350 (sec) ----------------
Time     = 4550000.000000 Temp     = 233.037749 Press    = 328.602104 
PotEng   = -10.471737 KinEng   = 0.693285 Lx       = 24.727778 
Ly       = 24.727778 Lz       = 24.727778 Density  = 1.012990 
Volume   = 15120.120817 
---------------- Step   920000 ----- CPU =    596.1071 (sec) ----------------
Time     = 4600000.000000 Temp     = 221.921463 Press    = -180.057406 
PotEng   = -10.474705 KinEng   = 0.660214 Lx       = 24.662927 
Ly       = 24.662927 Lz       = 24.662927 Density  = 1.021002 
Volume   = 15001.471157 
---------------- Step   930000 ----- CPU =    602.7333 (sec) ----------------
Time     = 4650000.000000 Temp     = 223.821961 Press    = 1431.614118 
PotEng   = -10.453992 KinEng   = 0.665868 Lx       = 24.610853 
Ly       = 24.610853 Lz       = 24.610853 Density  = 1.027497 
Volume   = 14906.647918 
---------------- Step   940000 ----- CPU =    609.2786 (sec) ----------------
Time     = 4700000.000000 Temp     = 229.611908 Press    = 1567.485070 
PotEng   = -10.464481 KinEng   = 0.683093 Lx       = 24.643381 
Ly       = 24.643381 Lz       = 24.643381 Density  = 1.023434 
Volume   = 14965.832832 
---------------- Step   950000 ----- CPU =    615.8406 (sec) ----------------
Time     = 4750000.000000 Temp     = 233.266433 Press    = 1213.334732 
PotEng   = -10.482672 KinEng   = 0.693965 Lx       = 24.661562 
Ly       = 24.661562 Lz       = 24.661562 Density  = 1.021172 
Volume   = 14998.980181 
---------------- Step   960000 ----- CPU =    622.3938 (sec) ----------------
Time     = 4800000.000000 Temp     = 235.050613 Press    = 976.701636 
PotEng   = -10.413970 KinEng   = 0.699273 Lx       = 24.579047 
Ly       = 24.579047 Lz       = 24.579047 Density  = 1.031491 
Volume   = 14848.928803 
---------------- Step   970000 ----- CPU =    629.0013 (sec) ----------------
Time     = 4850000.000000 Temp     = 222.414220 Press    = 1526.172300 
PotEng   = -10.461620 KinEng   = 0.661680 Lx       = 24.660785 
Ly       = 24.660785 Lz       = 24.660785 Density  = 1.021268 
Volume   = 14997.563521 
---------------- Step   980000 ----- CPU =    635.5641 (sec) ----------------
Time     = 4900000.000000 Temp     = 240.394117 Press    = 1041.485761 
PotEng   = -10.455935 KinEng   = 0.715170 Lx       = 24.710701 
Ly       = 24.710701 Lz       = 24.710701 Density  = 1.015092 
Volume   = 15088.816893 
---------------- Step   990000 ----- CPU =    642.1910 (sec) ----------------
Time     = 4950000.000000 Temp     = 209.432531 Press    = 1888.243453 
PotEng   = -10.482470 KinEng   = 0.623059 Lx       = 24.545916 
Ly       = 24.545916 Lz       = 24.545916 Density  = 1.035673 
Volume   = 14788.962647 
---------------- Step  1000000 ----- CPU =    648.8153 (sec) ----------------
Time     = 5000000.000000 Temp     = 227.196688 Press    = 1467.404660 
PotEng   = -10.501473 KinEng   = 0.675907 Lx       = 24.634416 
Ly       = 24.634416 Lz       = 24.634416 Density  = 1.024551 
Volume   = 14949.505090 
Loop time of 648.815 on 6 procs for 1000000 steps with 512 atoms

Performance: 665.829 ns/day, 0.036 hours/ns, 1541.270 timesteps/s
97.1% CPU use with 6 MPI tasks x no OpenMP threads

MPI task timing breakdown:
Section |  min time  |  avg time  |  max time  |%varavg| %total
---------------------------------------------------------------
Pair    | 549.28     | 550.64     | 553.56     |   6.2 | 84.87
Neigh   | 13.648     | 13.673     | 13.695     |   0.4 |  2.11
Comm    | 67.301     | 70.609     | 71.708     |  18.4 | 10.88
Output  | 0.0024137  | 0.0044901  | 0.014816   |   6.9 |  0.00
Modify  | 11.067     | 11.565     | 11.922     |   9.2 |  1.78
Other   |            | 2.322      |            |       |  0.36

Nlocal:    85.3333 ave 89 max 82 min
Histogram: 1 1 0 0 1 1 0 1 0 1
Nghost:    571.333 ave 586 max 562 min
Histogram: 2 0 1 0 0 2 0 0 0 1
Neighs:    0 ave 0 max 0 min
Histogram: 6 0 0 0 0 0 0 0 0 0
FullNghs:  2893.67 ave 3054 max 2753 min
Histogram: 2 0 0 0 1 0 2 0 0 1

Total # of neighbors = 17362
Ave neighs/atom = 33.9102
Neighbor list builds = 54797
Dangerous builds = 0
Setting up Verlet run ...
  Unit style    : real
  Current step  : 1000000
  Time step     : 5
Per MPI rank memory allocation (min/avg/max) = 2.946 | 2.946 | 2.947 Mbytes
---------------- Step  1000000 ----- CPU =      0.0000 (sec) ----------------
Time     = 5000000.000000 Temp     = 227.196688 Press    = 1467.404660 
PotEng   = -10.501473 KinEng   = 0.675907 Lx       = 24.634416 
Ly       = 24.634416 Lz       = 24.634416 Density  = 1.024551 
Volume   = 14949.505090 
---------------- Step  1010000 ----- CPU =      6.5490 (sec) ----------------
Time     = 5050000.000000 Temp     = 227.872875 Press    = -181.865738 
PotEng   = -10.511957 KinEng   = 0.677919 Lx       = 24.753324 
Ly       = 24.753324 Lz       = 24.753324 Density  = 1.009857 
Volume   = 15167.031299 
---------------- Step  1020000 ----- CPU =     13.1168 (sec) ----------------
Time     = 5100000.000000 Temp     = 235.835260 Press    = 751.651294 
PotEng   = -10.453099 KinEng   = 0.701607 Lx       = 24.667317 
Ly       = 24.667317 Lz       = 24.667317 Density  = 1.020457 
Volume   = 15009.482845 
---------------- Step  1030000 ----- CPU =     19.6891 (sec) ----------------
Time     = 5150000.000000 Temp     = 240.479958 Press    = 621.327847 
PotEng   = -10.432921 KinEng   = 0.715425 Lx       = 24.629147 
Ly       = 24.629147 Lz       = 24.629147 Density  = 1.025209 
Volume   = 14939.914007 
---------------- Step  1040000 ----- CPU =     26.3252 (sec) ----------------
Time     = 5200000.000000 Temp     = 233.688729 Press    = 185.418131 
PotEng   = -10.480553 KinEng   = 0.695221 Lx       = 24.698399 
Ly       = 24.698399 Lz       = 24.698399 Density  = 1.016609 
Volume   = 15066.293039 
---------------- Step  1050000 ----- CPU =     32.9111 (sec) ----------------
Time     = 5250000.000000 Temp     = 237.355193 Press    = 1119.544978 
PotEng   = -10.487343 KinEng   = 0.706129 Lx       = 24.675274 
Ly       = 24.675274 Lz       = 24.675274 Density  = 1.019470 
Volume   = 15024.012615 
---------------- Step  1060000 ----- CPU =     39.4877 (sec) ----------------
Time     = 5300000.000000 Temp     = 243.308201 Press    = 351.932455 
PotEng   = -10.484742 KinEng   = 0.723839 Lx       = 24.643972 
Ly       = 24.643972 Lz       = 24.643972 Density  = 1.023360 
Volume   = 14966.908256 
---------------- Step  1070000 ----- CPU =     46.1042 (sec) ----------------
Time     = 5350000.000000 Temp     = 219.212999 Press    = 926.363570 
PotEng   = -10.483722 KinEng   = 0.652156 Lx       = 24.777826 
Ly       = 24.777826 Lz       = 24.777826 Density  = 1.006864 
Volume   = 15212.114530 
---------------- Step  1080000 ----- CPU =     52.6068 (sec) ----------------
Time     = 5400000.000000 Temp     = 232.245739 Press    = 281.229046 
PotEng   = -10.534836 KinEng   = 0.690928 Lx       = 24.716427 
Ly       = 24.716427 Lz       = 24.716427 Density  = 1.014386 
Volume   = 15099.308785 
---------------- Step  1090000 ----- CPU =     59.1057 (sec) ----------------
Time     = 5450000.000000 Temp     = 229.459063 Press    = 1102.322431 
PotEng   = -10.593564 KinEng   = 0.682638 Lx       = 24.686206 
Ly       = 24.686206 Lz       = 24.686206 Density  = 1.018116 
Volume   = 15043.990853 
---------------- Step  1100000 ----- CPU =     65.6965 (sec) ----------------
Time     = 5500000.000000 Temp     = 240.561983 Press    = 2023.915689 
PotEng   = -10.450264 KinEng   = 0.715669 Lx       = 24.621625 
Ly       = 24.621625 Lz       = 24.621625 Density  = 1.026149 
Volume   = 14926.230492 
---------------- Step  1110000 ----- CPU =     72.2329 (sec) ----------------
Time     = 5550000.000000 Temp     = 226.788707 Press    = -603.561999 
PotEng   = -10.525465 KinEng   = 0.674694 Lx       = 24.735772 
Ly       = 24.735772 Lz       = 24.735772 Density  = 1.012008 
Volume   = 15134.789777 
---------------- Step  1120000 ----- CPU =     78.7911 (sec) ----------------
Time     = 5600000.000000 Temp     = 250.203438 Press    = 1118.925506 
PotEng   = -10.510361 KinEng   = 0.744352 Lx       = 24.710085 
Ly       = 24.710085 Lz       = 24.710085 Density  = 1.015168 
Volume   = 15087.688761 
---------------- Step  1130000 ----- CPU =     85.3847 (sec) ----------------
Time     = 5650000.000000 Temp     = 218.671351 Press    = 1553.811407 
PotEng   = -10.508360 KinEng   = 0.650545 Lx       = 24.642339 
Ly       = 24.642339 Lz       = 24.642339 Density  = 1.023563 
Volume   = 14963.933951 
---------------- Step  1140000 ----- CPU =     91.9616 (sec) ----------------
Time     = 5700000.000000 Temp     = 231.114209 Press    = 1407.496219 
PotEng   = -10.511725 KinEng   = 0.687562 Lx       = 24.690129 
Ly       = 24.690129 Lz       = 24.690129 Density  = 1.017631 
Volume   = 15051.164122 
---------------- Step  1150000 ----- CPU =     98.5127 (sec) ----------------
Time     = 5750000.000000 Temp     = 218.099844 Press    = 1230.143740 
PotEng   = -10.523714 KinEng   = 0.648844 Lx       = 24.701135 
Ly       = 24.701135 Lz       = 24.701135 Density  = 1.016272 
Volume   = 15071.300937 
---------------- Step  1160000 ----- CPU =    105.1637 (sec) ----------------
Time     = 5800000.000000 Temp     = 223.575620 Press    = 742.275840 
PotEng   = -10.465571 KinEng   = 0.665135 Lx       = 24.676083 
Ly       = 24.676083 Lz       = 24.676083 Density  = 1.019370 
Volume   = 15025.490479 
---------------- Step  1170000 ----- CPU =    111.7392 (sec) ----------------
Time     = 5850000.000000 Temp     = 226.700005 Press    = 843.279672 
PotEng   = -10.451603 KinEng   = 0.674430 Lx       = 24.681637 
Ly       = 24.681637 Lz       = 24.681637 Density  = 1.018682 
Volume   = 15035.638119 
---------------- Step  1180000 ----- CPU =    118.3477 (sec) ----------------
Time     = 5900000.000000 Temp     = 230.061682 Press    = 966.238703 
PotEng   = -10.448007 KinEng   = 0.684431 Lx       = 24.610762 
Ly       = 24.610762 Lz       = 24.610762 Density  = 1.027508 
Volume   = 14906.481976 
---------------- Step  1190000 ----- CPU =    125.2674 (sec) ----------------
Time     = 5950000.000000 Temp     = 225.816015 Press    = 197.271068 
PotEng   = -10.492305 KinEng   = 0.671800 Lx       = 24.758070 
Ly       = 24.758070 Lz       = 24.758070 Density  = 1.009276 
Volume   = 15175.757671 
---------------- Step  1200000 ----- CPU =    131.8824 (sec) ----------------
Time     = 6000000.000000 Temp     = 232.362119 Press    = 1505.440686 
PotEng   = -10.519987 KinEng   = 0.691275 Lx       = 24.619320 
Ly       = 24.619320 Lz       = 24.619320 Density  = 1.026437 
Volume   = 14922.039368 
---------------- Step  1210000 ----- CPU =    138.5253 (sec) ----------------
Time     = 6050000.000000 Temp     = 221.556983 Press    = 646.174714 
PotEng   = -10.517881 KinEng   = 0.659129 Lx       = 24.695583 
Ly       = 24.695583 Lz       = 24.695583 Density  = 1.016957 
Volume   = 15061.139487 
---------------- Step  1220000 ----- CPU =    145.2187 (sec) ----------------
Time     = 6100000.000000 Temp     = 207.422861 Press    = 1029.908134 
PotEng   = -10.435420 KinEng   = 0.617081 Lx       = 24.621077 
Ly       = 24.621077 Lz       = 24.621077 Density  = 1.026217 
Volume   = 14925.233410 
---------------- Step  1230000 ----- CPU =    151.8336 (sec) ----------------
Time     = 6150000.000000 Temp     = 220.073335 Press    = 835.130978 
PotEng   = -10.493882 KinEng   = 0.654716 Lx       = 24.596575 
Ly       = 24.596575 Lz       = 24.596575 Density  = 1.029287 
Volume   = 14880.719276 
---------------- Step  1240000 ----- CPU =    158.3773 (sec) ----------------
Time     = 6200000.000000 Temp     = 228.123501 Press    = 1805.365705 
PotEng   = -10.488088 KinEng   = 0.678665 Lx       = 24.585932 
Ly       = 24.585932 Lz       = 24.585932 Density  = 1.030625 
Volume   = 14861.410907 
---------------- Step  1250000 ----- CPU =    165.0270 (sec) ----------------
Time     = 6250000.000000 Temp     = 218.147102 Press    = 1867.984932 
PotEng   = -10.359552 KinEng   = 0.648985 Lx       = 24.520022 
Ly       = 24.520022 Lz       = 24.520022 Density  = 1.038958 
Volume   = 14742.209605 
---------------- Step  1260000 ----- CPU =    171.5657 (sec) ----------------
Time     = 6300000.000000 Temp     = 242.455599 Press    = 1665.385143 
PotEng   = -10.430686 KinEng   = 0.721303 Lx       = 24.599882 
Ly       = 24.599882 Lz       = 24.599882 Density  = 1.028872 
Volume   = 14886.722595 
---------------- Step  1270000 ----- CPU =    178.1608 (sec) ----------------
Time     = 6350000.000000 Temp     = 232.686372 Press    = 1864.972500 
PotEng   = -10.433684 KinEng   = 0.692239 Lx       = 24.623234 
Ly       = 24.623234 Lz       = 24.623234 Density  = 1.025948 
Volume   = 14929.156583 
---------------- Step  1280000 ----- CPU =    184.7785 (sec) ----------------
Time     = 6400000.000000 Temp     = 230.517655 Press    = 651.898925 
PotEng   = -10.442222 KinEng   = 0.685787 Lx       = 24.625497 
Ly       = 24.625497 Lz       = 24.625497 Density  = 1.025665 
Volume   = 14933.273850 
---------------- Step  1290000 ----- CPU =    191.3412 (sec) ----------------
Time     = 6450000.000000 Temp     = 241.238105 Press    = 1288.261763 
PotEng   = -10.519363 KinEng   = 0.717681 Lx       = 24.648466 
Ly       = 24.648466 Lz       = 24.648466 Density  = 1.022800 
Volume   = 14975.098679 
---------------- Step  1300000 ----- CPU =    197.8261 (sec) ----------------
Time     = 6500000.000000 Temp     = 231.120341 Press    = 777.950787 
PotEng   = -10.465542 KinEng   = 0.687580 Lx       = 24.614809 
Ly       = 24.614809 Lz       = 24.614809 Density  = 1.027002 
Volume   = 14913.837042 
---------------- Step  1310000 ----- CPU =    204.3976 (sec) ----------------
Time     = 6550000.000000 Temp     = 233.743108 Press    = 1920.370364 
PotEng   = -10.439819 KinEng   = 0.695383 Lx       = 24.651124 
Ly       = 24.651124 Lz       = 24.651124 Density  = 1.022469 
Volume   = 14979.943300 
---------------- Step  1320000 ----- CPU =    210.9903 (sec) ----------------
Time     = 6600000.000000 Temp     = 237.250039 Press    = 1067.913641 
PotEng   = -10.513564 KinEng   = 0.705816 Lx       = 24.595570 
Ly       = 24.595570 Lz       = 24.595570 Density  = 1.029414 
Volume   = 14878.894192 
---------------- Step  1330000 ----- CPU =    217.5052 (sec) ----------------
Time     = 6650000.000000 Temp     = 218.518028 Press    = 1753.249694 
PotEng   = -10.505899 KinEng   = 0.650089 Lx       = 24.546766 
Ly       = 24.546766 Lz       = 24.546766 Density  = 1.035566 
Volume   = 14790.499275 
---------------- Step  1340000 ----- CPU =    224.1134 (sec) ----------------
Time     = 6700000.000000 Temp     = 223.607971 Press    = 2612.818474 
PotEng   = -10.466385 KinEng   = 0.665231 Lx       = 24.476875 
Ly       = 24.476875 Lz       = 24.476875 Density  = 1.044462 
Volume   = 14664.521869 
---------------- Step  1350000 ----- CPU =    230.6992 (sec) ----------------
Time     = 6750000.000000 Temp     = 219.921234 Press    = 816.342804 
PotEng   = -10.494336 KinEng   = 0.654263 Lx       = 24.697933 
Ly       = 24.697933 Lz       = 24.697933 Density  = 1.016667 
Volume   = 15065.439511 
---------------- Step  1360000 ----- CPU =    237.3432 (sec) ----------------
Time     = 6800000.000000 Temp     = 229.901257 Press    = 1187.187798 
PotEng   = -10.424437 KinEng   = 0.683954 Lx       = 24.556952 
Ly       = 24.556952 Lz       = 24.556952 Density  = 1.034278 
Volume   = 14808.919815 
---------------- Step  1370000 ----- CPU =    243.9623 (sec) ----------------
Time     = 6850000.000000 Temp     = 241.398099 Press    = 866.048942 
PotEng   = -10.455173 KinEng   = 0.718156 Lx       = 24.760849 
Ly       = 24.760849 Lz       = 24.760849 Density  = 1.008937 
Volume   = 15180.867779 
---------------- Step  1380000 ----- CPU =    250.5345 (sec) ----------------
Time     = 6900000.000000 Temp     = 230.628846 Press    = 452.200085 
PotEng   = -10.523722 KinEng   = 0.686118 Lx       = 24.634232 
Ly       = 24.634232 Lz       = 24.634232 Density  = 1.024574 
Volume   = 14949.169930 
---------------- Step  1390000 ----- CPU =    257.1133 (sec) ----------------
Time     = 6950000.000000 Temp     = 233.200582 Press    = -160.019185 
PotEng   = -10.486458 KinEng   = 0.693769 Lx       = 24.688124 
Ly       = 24.688124 Lz       = 24.688124 Density  = 1.017879 
Volume   = 15047.496923 
---------------- Step  1400000 ----- CPU =    263.6475 (sec) ----------------
Time     = 7000000.000000 Temp     = 245.454898 Press    = 1482.641242 
PotEng   = -10.454215 KinEng   = 0.730225 Lx       = 24.696570 
Ly       = 24.696570 Lz       = 24.696570 Density  = 1.016835 
Volume   = 15062.946873 
---------------- Step  1410000 ----- CPU =    270.1858 (sec) ----------------
Time     = 7050000.000000 Temp     = 235.053007 Press    = 889.743065 
PotEng   = -10.495343 KinEng   = 0.699280 Lx       = 24.618751 
Ly       = 24.618751 Lz       = 24.618751 Density  = 1.026508 
Volume   = 14921.003933 
---------------- Step  1420000 ----- CPU =    276.7426 (sec) ----------------
Time     = 7100000.000000 Temp     = 221.633109 Press    = 477.649900 
PotEng   = -10.402532 KinEng   = 0.659356 Lx       = 24.704200 
Ly       = 24.704200 Lz       = 24.704200 Density  = 1.015893 
Volume   = 15076.911336 
---------------- Step  1430000 ----- CPU =    283.3772 (sec) ----------------
Time     = 7150000.000000 Temp     = 237.374633 Press    = 1316.748735 
PotEng   = -10.466558 KinEng   = 0.706187 Lx       = 24.631399 
Ly       = 24.631399 Lz       = 24.631399 Density  = 1.024928 
Volume   = 14944.012464 
---------------- Step  1440000 ----- CPU =    289.9810 (sec) ----------------
Time     = 7200000.000000 Temp     = 240.600237 Press    = 1270.192565 
PotEng   = -10.530850 KinEng   = 0.715783 Lx       = 24.612876 
Ly       = 24.612876 Lz       = 24.612876 Density  = 1.027244 
Volume   = 14910.324769 
---------------- Step  1450000 ----- CPU =    296.6018 (sec) ----------------
Time     = 7250000.000000 Temp     = 229.731583 Press    = -772.818317 
PotEng   = -10.441647 KinEng   = 0.683449 Lx       = 24.718819 
Ly       = 24.718819 Lz       = 24.718819 Density  = 1.014092 
Volume   = 15103.693466 
---------------- Step  1460000 ----- CPU =    303.1733 (sec) ----------------
Time     = 7300000.000000 Temp     = 237.565395 Press    = 623.553222 
PotEng   = -10.480908 KinEng   = 0.706754 Lx       = 24.728784 
Ly       = 24.728784 Lz       = 24.728784 Density  = 1.012867 
Volume   = 15121.966594 
---------------- Step  1470000 ----- CPU =    309.7204 (sec) ----------------
Time     = 7350000.000000 Temp     = 228.305933 Press    = 2554.705418 
PotEng   = -10.496205 KinEng   = 0.679207 Lx       = 24.543286 
Ly       = 24.543286 Lz       = 24.543286 Density  = 1.036006 
Volume   = 14784.209339 
---------------- Step  1480000 ----- CPU =    316.3152 (sec) ----------------
Time     = 7400000.000000 Temp     = 247.131432 Press    = 906.745962 
PotEng   = -10.449193 KinEng   = 0.735213 Lx       = 24.646436 
Ly       = 24.646436 Lz       = 24.646436 Density  = 1.023053 
Volume   = 14971.398631 
---------------- Step  1490000 ----- CPU =    322.8847 (sec) ----------------
Time     = 7450000.000000 Temp     = 237.088794 Press    = 525.347019 
PotEng   = -10.501298 KinEng   = 0.705336 Lx       = 24.738649 
Ly       = 24.738649 Lz       = 24.738649 Density  = 1.011655 
Volume   = 15140.071338 
---------------- Step  1500000 ----- CPU =    329.4782 (sec) ----------------
Time     = 7500000.000000 Temp     = 222.970033 Press    = 1033.764738 
PotEng   = -10.449246 KinEng   = 0.663333 Lx       = 24.684695 
Ly       = 24.684695 Lz       = 24.684695 Density  = 1.018303 
Volume   = 15041.228596 
---------------- Step  1510000 ----- CPU =    336.0743 (sec) ----------------
Time     = 7550000.000000 Temp     = 237.667259 Press    = 1206.711801 
PotEng   = -10.440362 KinEng   = 0.707057 Lx       = 24.651251 
Ly       = 24.651251 Lz       = 24.651251 Density  = 1.022454 
Volume   = 14980.175682 
---------------- Step  1520000 ----- CPU =    342.6294 (sec) ----------------
Time     = 7600000.000000 Temp     = 218.364503 Press    = 683.576578 
PotEng   = -10.554584 KinEng   = 0.649632 Lx       = 24.672731 
Ly       = 24.672731 Lz       = 24.672731 Density  = 1.019786 
Volume   = 15019.368352 
---------------- Step  1530000 ----- CPU =    349.2259 (sec) ----------------
Time     = 7650000.000000 Temp     = 222.817616 Press    = 766.471164 
PotEng   = -10.453939 KinEng   = 0.662880 Lx       = 24.659488 
Ly       = 24.659488 Lz       = 24.659488 Density  = 1.021429 
Volume   = 14995.196821 
---------------- Step  1540000 ----- CPU =    355.7898 (sec) ----------------
Time     = 7700000.000000 Temp     = 229.615312 Press    = 1432.897184 
PotEng   = -10.451291 KinEng   = 0.683103 Lx       = 24.665973 
Ly       = 24.665973 Lz       = 24.665973 Density  = 1.020624 
Volume   = 15007.030832 
---------------- Step  1550000 ----- CPU =    362.3208 (sec) ----------------
Time     = 7750000.000000 Temp     = 238.360231 Press    = 969.189501 
PotEng   = -10.463253 KinEng   = 0.709119 Lx       = 24.693577 
Ly       = 24.693577 Lz       = 24.693577 Density  = 1.017205 
Volume   = 15057.469832 
---------------- Step  1560000 ----- CPU =    368.9092 (sec) ----------------
Time     = 7800000.000000 Temp     = 237.736544 Press    = 174.969531 
PotEng   = -10.478071 KinEng   = 0.707263 Lx       = 24.661815 
Ly       = 24.661815 Lz       = 24.661815 Density  = 1.021140 
Volume   = 14999.441242 
---------------- Step  1570000 ----- CPU =    375.4654 (sec) ----------------
Time     = 7850000.000000 Temp     = 222.075789 Press    = 579.611567 
PotEng   = -10.457561 KinEng   = 0.660673 Lx       = 24.652937 
Ly       = 24.652937 Lz       = 24.652937 Density  = 1.022244 
Volume   = 14983.249296 
---------------- Step  1580000 ----- CPU =    381.9917 (sec) ----------------
Time     = 7900000.000000 Temp     = 229.658339 Press    = 2308.619428 
PotEng   = -10.503694 KinEng   = 0.683231 Lx       = 24.653372 
Ly       = 24.653372 Lz       = 24.653372 Density  = 1.022190 
Volume   = 14984.042179 
---------------- Step  1590000 ----- CPU =    388.5391 (sec) ----------------
Time     = 7950000.000000 Temp     = 237.984592 Press    = 1055.826268 
PotEng   = -10.385294 KinEng   = 0.708001 Lx       = 24.620890 
Ly       = 24.620890 Lz       = 24.620890 Density  = 1.026241 
Volume   = 14924.893380 
---------------- Step  1600000 ----- CPU =    395.1002 (sec) ----------------
Time     = 8000000.000000 Temp     = 220.994468 Press    = 1037.055323 
PotEng   = -10.422738 KinEng   = 0.657456 Lx       = 24.615445 
Ly       = 24.615445 Lz       = 24.615445 Density  = 1.026922 
Volume   = 14914.993296 
---------------- Step  1610000 ----- CPU =    401.7524 (sec) ----------------
Time     = 8050000.000000 Temp     = 236.430799 Press    = 425.407272 
PotEng   = -10.507882 KinEng   = 0.703379 Lx       = 24.693646 
Ly       = 24.693646 Lz       = 24.693646 Density  = 1.017197 
Volume   = 15057.595612 
---------------- Step  1620000 ----- CPU =    408.3172 (sec) ----------------
Time     = 8100000.000000 Temp     = 223.334627 Press    = 1411.716083 
PotEng   = -10.446648 KinEng   = 0.664418 Lx       = 24.608716 
Ly       = 24.608716 Lz       = 24.608716 Density  = 1.027765 
Volume   = 14902.764915 
---------------- Step  1630000 ----- CPU =    414.8921 (sec) ----------------
Time     = 8150000.000000 Temp     = 224.482916 Press    = 998.373730 
PotEng   = -10.432955 KinEng   = 0.667834 Lx       = 24.664590 
Ly       = 24.664590 Lz       = 24.664590 Density  = 1.020796 
Volume   = 15004.505651 
---------------- Step  1640000 ----- CPU =    421.4258 (sec) ----------------
Time     = 8200000.000000 Temp     = 239.310854 Press    = -126.910265 
PotEng   = -10.513030 KinEng   = 0.711947 Lx       = 24.705948 
Ly       = 24.705948 Lz       = 24.705948 Density  = 1.015678 
Volume   = 15080.112400 
---------------- Step  1650000 ----- CPU =    428.3041 (sec) ----------------
Time     = 8250000.000000 Temp     = 235.414328 Press    = 1538.190434 
PotEng   = -10.437886 KinEng   = 0.700355 Lx       = 24.678088 
Ly       = 24.678088 Lz       = 24.678088 Density  = 1.019122 
Volume   = 15029.153130 
---------------- Step  1660000 ----- CPU =    434.8414 (sec) ----------------
Time     = 8300000.000000 Temp     = 223.989061 Press    = 1050.820138 
PotEng   = -10.470505 KinEng   = 0.666365 Lx       = 24.578732 
Ly       = 24.578732 Lz       = 24.578732 Density  = 1.031530 
Volume   = 14848.358557 
---------------- Step  1670000 ----- CPU =    441.5949 (sec) ----------------
Time     = 8350000.000000 Temp     = 232.389356 Press    = 744.027527 
PotEng   = -10.489779 KinEng   = 0.691356 Lx       = 24.694530 
Ly       = 24.694530 Lz       = 24.694530 Density  = 1.017087 
Volume   = 15059.213734 
---------------- Step  1680000 ----- CPU =    448.1413 (sec) ----------------
Time     = 8400000.000000 Temp     = 245.726026 Press    = 1208.431001 
PotEng   = -10.467517 KinEng   = 0.731032 Lx       = 24.654213 
Ly       = 24.654213 Lz       = 24.654213 Density  = 1.022085 
Volume   = 14985.575340 
---------------- Step  1690000 ----- CPU =    454.6673 (sec) ----------------
Time     = 8450000.000000 Temp     = 232.540956 Press    = 994.325073 
PotEng   = -10.583521 KinEng   = 0.691807 Lx       = 24.661681 
Ly       = 24.661681 Lz       = 24.661681 Density  = 1.021157 
Volume   = 14999.196951 
---------------- Step  1700000 ----- CPU =    461.2294 (sec) ----------------
Time     = 8500000.000000 Temp     = 214.903998 Press    = 1692.329336 
PotEng   = -10.400323 KinEng   = 0.639337 Lx       = 24.660919 
Ly       = 24.660919 Lz       = 24.660919 Density  = 1.021252 
Volume   = 14997.807555 
---------------- Step  1710000 ----- CPU =    467.7856 (sec) ----------------
Time     = 8550000.000000 Temp     = 224.229381 Press    = 81.999060 
PotEng   = -10.514610 KinEng   = 0.667080 Lx       = 24.699412 
Ly       = 24.699412 Lz       = 24.699412 Density  = 1.016484 
Volume   = 15068.146376 
---------------- Step  1720000 ----- CPU =    474.4042 (sec) ----------------
Time     = 8600000.000000 Temp     = 236.564485 Press    = 1327.645394 
PotEng   = -10.466394 KinEng   = 0.703777 Lx       = 24.529737 
Ly       = 24.529737 Lz       = 24.529737 Density  = 1.037724 
Volume   = 14759.739429 
---------------- Step  1730000 ----- CPU =    481.0848 (sec) ----------------
Time     = 8650000.000000 Temp     = 214.538437 Press    = 246.513048 
PotEng   = -10.458374 KinEng   = 0.638249 Lx       = 24.678143 
Ly       = 24.678143 Lz       = 24.678143 Density  = 1.019115 
Volume   = 15029.254010 
---------------- Step  1740000 ----- CPU =    487.5865 (sec) ----------------
Time     = 8700000.000000 Temp     = 222.335781 Press    = 1224.914311 
PotEng   = -10.451493 KinEng   = 0.661446 Lx       = 24.695562 
Ly       = 24.695562 Lz       = 24.695562 Density  = 1.016960 
Volume   = 15061.102482 
---------------- Step  1750000 ----- CPU =    494.1580 (sec) ----------------
Time     = 8750000.000000 Temp     = 228.255535 Press    = 1025.638618 
PotEng   = -10.522608 KinEng   = 0.679058 Lx       = 24.719388 
Ly       = 24.719388 Lz       = 24.719388 Density  = 1.014022 
Volume   = 15104.736115 
---------------- Step  1760000 ----- CPU =    500.6778 (sec) ----------------
Time     = 8800000.000000 Temp     = 222.104614 Press    = 1176.485239 
PotEng   = -10.541015 KinEng   = 0.660759 Lx       = 24.678229 
Ly       = 24.678229 Lz       = 24.678229 Density  = 1.019104 
Volume   = 15029.411386 
---------------- Step  1770000 ----- CPU =    507.2098 (sec) ----------------
Time     = 8850000.000000 Temp     = 223.249897 Press    = 2048.957346 
PotEng   = -10.473616 KinEng   = 0.664166 Lx       = 24.632247 
Ly       = 24.632247 Lz       = 24.632247 Density  = 1.024822 
Volume   = 14945.556857 
---------------- Step  1780000 ----- CPU =    513.7616 (sec) ----------------
Time     = 8900000.000000 Temp     = 240.378530 Press    = 915.788957 
PotEng   = -10.482672 KinEng   = 0.715123 Lx       = 24.678905 
Ly       = 24.678905 Lz       = 24.678905 Density  = 1.019020 
Volume   = 15030.647164 
---------------- Step  1790000 ----- CPU =    520.2933 (sec) ----------------
Time     = 8950000.000000 Temp     = 231.738830 Press    = 1624.791928 
PotEng   = -10.422232 KinEng   = 0.689420 Lx       = 24.705147 
Ly       = 24.705147 Lz       = 24.705147 Density  = 1.015777 
Volume   = 15078.645553 
---------------- Step  1800000 ----- CPU =    526.9305 (sec) ----------------
Time     = 9000000.000000 Temp     = 233.704940 Press    = 1275.079800 
PotEng   = -10.468750 KinEng   = 0.695269 Lx       = 24.684316 
Ly       = 24.684316 Lz       = 24.684316 Density  = 1.018350 
Volume   = 15040.536003 
---------------- Step  1810000 ----- CPU =    533.5836 (sec) ----------------
Time     = 9050000.000000 Temp     = 229.561998 Press    = 1434.048462 
PotEng   = -10.418847 KinEng   = 0.682944 Lx       = 24.616236 
Ly       = 24.616236 Lz       = 24.616236 Density  = 1.026823 
Volume   = 14916.430951 
---------------- Step  1820000 ----- CPU =    540.1393 (sec) ----------------
Time     = 9100000.000000 Temp     = 237.526367 Press    = 308.989983 
PotEng   = -10.533088 KinEng   = 0.706638 Lx       = 24.749987 
Ly       = 24.749987 Lz       = 24.749987 Density  = 1.010266 
Volume   = 15160.897366 
---------------- Step  1830000 ----- CPU =    546.7005 (sec) ----------------
Time     = 9150000.000000 Temp     = 238.916528 Press    = 144.557507 
PotEng   = -10.460931 KinEng   = 0.710774 Lx       = 24.642827 
Ly       = 24.642827 Lz       = 24.642827 Density  = 1.023503 
Volume   = 14964.822704 
---------------- Step  1840000 ----- CPU =    553.3145 (sec) ----------------
Time     = 9200000.000000 Temp     = 237.484906 Press    = 1004.751825 
PotEng   = -10.481012 KinEng   = 0.706515 Lx       = 24.698515 
Ly       = 24.698515 Lz       = 24.698515 Density  = 1.016595 
Volume   = 15066.504736 
---------------- Step  1850000 ----- CPU =    559.8871 (sec) ----------------
Time     = 9250000.000000 Temp     = 232.204785 Press    = 1363.496515 
PotEng   = -10.436736 KinEng   = 0.690806 Lx       = 24.618537 
Ly       = 24.618537 Lz       = 24.618537 Density  = 1.026535 
Volume   = 14920.615345 
---------------- Step  1860000 ----- CPU =    566.4238 (sec) ----------------
Time     = 9300000.000000 Temp     = 217.131580 Press    = 384.043991 
PotEng   = -10.546348 KinEng   = 0.645964 Lx       = 24.723849 
Ly       = 24.723849 Lz       = 24.723849 Density  = 1.013473 
Volume   = 15112.915204 
---------------- Step  1870000 ----- CPU =    572.8469 (sec) ----------------
Time     = 9350000.000000 Temp     = 227.162902 Press    = 1097.889851 
PotEng   = -10.555276 KinEng   = 0.675807 Lx       = 24.709203 
Ly       = 24.709203 Lz       = 24.709203 Density  = 1.015276 
Volume   = 15086.072477 
---------------- Step  1880000 ----- CPU =    579.4223 (sec) ----------------
Time     = 9400000.000000 Temp     = 224.975999 Press    = 982.301022 
PotEng   = -10.434514 KinEng   = 0.669301 Lx       = 24.621805 
Ly       = 24.621805 Lz       = 24.621805 Density  = 1.026126 
Volume   = 14926.557306 
---------------- Step  1890000 ----- CPU =    586.0514 (sec) ----------------
Time     = 9450000.000000 Temp     = 220.751622 Press    = 978.421314 
PotEng   = -10.536002 KinEng   = 0.656733 Lx       = 24.676259 
Ly       = 24.676259 Lz       = 24.676259 Density  = 1.019348 
Volume   = 15025.812758 
---------------- Step  1900000 ----- CPU =    592.6236 (sec) ----------------
Time     = 9500000.000000 Temp     = 223.456721 Press    = 3.288300 
PotEng   = -10.467342 KinEng   = 0.664781 Lx       = 24.638260 
Ly       = 24.638260 Lz       = 24.638260 Density  = 1.024072 
Volume   = 14956.504688 
---------------- Step  1910000 ----- CPU =    599.1782 (sec) ----------------
Time     = 9550000.000000 Temp     = 229.965815 Press    = 940.412483 
PotEng   = -10.435744 KinEng   = 0.684146 Lx       = 24.592298 
Ly       = 24.592298 Lz       = 24.592298 Density  = 1.029824 
Volume   = 14872.957792 
---------------- Step  1920000 ----- CPU =    605.7945 (sec) ----------------
Time     = 9600000.000000 Temp     = 237.465026 Press    = 998.405435 
PotEng   = -10.464826 KinEng   = 0.706456 Lx       = 24.636905 
Ly       = 24.636905 Lz       = 24.636905 Density  = 1.024241 
Volume   = 14954.037530 
---------------- Step  1930000 ----- CPU =    612.4035 (sec) ----------------
Time     = 9650000.000000 Temp     = 233.885292 Press    = 978.598742 
PotEng   = -10.470421 KinEng   = 0.695806 Lx       = 24.641124 
Ly       = 24.641124 Lz       = 24.641124 Density  = 1.023715 
Volume   = 14961.720675 
---------------- Step  1940000 ----- CPU =    618.8589 (sec) ----------------
Time     = 9700000.000000 Temp     = 229.128822 Press    = 1076.763764 
PotEng   = -10.423978 KinEng   = 0.681656 Lx       = 24.670684 
Ly       = 24.670684 Lz       = 24.670684 Density  = 1.020039 
Volume   = 15015.630427 
---------------- Step  1950000 ----- CPU =    625.3863 (sec) ----------------
Time     = 9750000.000000 Temp     = 215.630733 Press    = 887.271977 
PotEng   = -10.466022 KinEng   = 0.641499 Lx       = 24.664583 
Ly       = 24.664583 Lz       = 24.664583 Density  = 1.020797 
Volume   = 15004.492933 
---------------- Step  1960000 ----- CPU =    631.9853 (sec) ----------------
Time     = 9800000.000000 Temp     = 229.401728 Press    = 325.517528 
PotEng   = -10.494861 KinEng   = 0.682467 Lx       = 24.697049 
Ly       = 24.697049 Lz       = 24.697049 Density  = 1.016776 
Volume   = 15063.822134 
---------------- Step  1970000 ----- CPU =    638.5226 (sec) ----------------
Time     = 9850000.000000 Temp     = 234.928306 Press    = 1088.696342 
PotEng   = -10.478555 KinEng   = 0.698909 Lx       = 24.679508 
Ly       = 24.679508 Lz       = 24.679508 Density  = 1.018946 
Volume   = 15031.748775 
---------------- Step  1980000 ----- CPU =    645.0918 (sec) ----------------
Time     = 9900000.000000 Temp     = 228.678816 Press    = 136.093990 
PotEng   = -10.510207 KinEng   = 0.680317 Lx       = 24.718181 
Ly       = 24.718181 Lz       = 24.718181 Density  = 1.014171 
Volume   = 15102.522924 
---------------- Step  1990000 ----- CPU =    651.6340 (sec) ----------------
Time     = 9950000.000000 Temp     = 241.895311 Press    = 548.548528 
PotEng   = -10.461461 KinEng   = 0.719636 Lx       = 24.678622 
Ly       = 24.678622 Lz       = 24.678622 Density  = 1.019055 
Volume   = 15030.129150 
---------------- Step  2000000 ----- CPU =    658.1853 (sec) ----------------
Time     = 10000000.000000 Temp     = 220.589641 Press    = 191.660400 
PotEng   = -10.460368 KinEng   = 0.656252 Lx       = 24.714095 
Ly       = 24.714095 Lz       = 24.714095 Density  = 1.014674 
Volume   = 15095.035109 
---------------- Step  2010000 ----- CPU =    664.7814 (sec) ----------------
Time     = 10050000.000000 Temp     = 217.821289 Press    = 845.439658 
PotEng   = -10.483932 KinEng   = 0.648016 Lx       = 24.702392 
Ly       = 24.702392 Lz       = 24.702392 Density  = 1.016116 
Volume   = 15073.601784 
---------------- Step  2020000 ----- CPU =    671.3011 (sec) ----------------
Time     = 10100000.000000 Temp     = 235.149514 Press    = 390.312750 
PotEng   = -10.497117 KinEng   = 0.699567 Lx       = 24.742165 
Ly       = 24.742165 Lz       = 24.742165 Density  = 1.011224 
Volume   = 15146.528790 
---------------- Step  2030000 ----- CPU =    677.8772 (sec) ----------------
Time     = 10150000.000000 Temp     = 237.496968 Press    = 698.998797 
PotEng   = -10.492378 KinEng   = 0.706551 Lx       = 24.646256 
Ly       = 24.646256 Lz       = 24.646256 Density  = 1.023075 
Volume   = 14971.070211 
---------------- Step  2040000 ----- CPU =    684.4177 (sec) ----------------
Time     = 10200000.000000 Temp     = 229.581717 Press    = 842.094741 
PotEng   = -10.472550 KinEng   = 0.683003 Lx       = 24.613382 
Ly       = 24.613382 Lz       = 24.613382 Density  = 1.027180 
Volume   = 14911.243630 
---------------- Step  2050000 ----- CPU =    690.9979 (sec) ----------------
Time     = 10250000.000000 Temp     = 239.308542 Press    = 687.074548 
PotEng   = -10.513786 KinEng   = 0.711940 Lx       = 24.689385 
Ly       = 24.689385 Lz       = 24.689385 Density  = 1.017723 
Volume   = 15049.803050 
---------------- Step  2060000 ----- CPU =    697.6473 (sec) ----------------
Time     = 10300000.000000 Temp     = 216.537189 Press    = 507.936859 
PotEng   = -10.455428 KinEng   = 0.644196 Lx       = 24.638850 
Ly       = 24.638850 Lz       = 24.638850 Density  = 1.023998 
Volume   = 14957.579753 
---------------- Step  2070000 ----- CPU =    704.2347 (sec) ----------------
Time     = 10350000.000000 Temp     = 231.888094 Press    = 1544.001653 
PotEng   = -10.514599 KinEng   = 0.689864 Lx       = 24.665817 
Ly       = 24.665817 Lz       = 24.665817 Density  = 1.020643 
Volume   = 15006.746112 
---------------- Step  2080000 ----- CPU =    710.7908 (sec) ----------------
Time     = 10400000.000000 Temp     = 235.863770 Press    = 1944.619806 
PotEng   = -10.418279 KinEng   = 0.701692 Lx       = 24.533987 
Ly       = 24.533987 Lz       = 24.533987 Density  = 1.037185 
Volume   = 14767.411230 
---------------- Step  2090000 ----- CPU =    717.3339 (sec) ----------------
Time     = 10450000.000000 Temp     = 249.406951 Press    = 1179.097171 
PotEng   = -10.518977 KinEng   = 0.741983 Lx       = 24.668572 
Ly       = 24.668572 Lz       = 24.668572 Density  = 1.020301 
Volume   = 15011.775201 
---------------- Step  2100000 ----- CPU =    724.2723 (sec) ----------------
Time     = 10500000.000000 Temp     = 227.439198 Press    = 318.588775 
PotEng   = -10.467625 KinEng   = 0.676629 Lx       = 24.668866 
Ly       = 24.668866 Lz       = 24.668866 Density  = 1.020265 
Volume   = 15012.311282 
---------------- Step  2110000 ----- CPU =    730.8185 (sec) ----------------
Time     = 10550000.000000 Temp     = 228.733524 Press    = 66.914707 
PotEng   = -10.447556 KinEng   = 0.680480 Lx       = 24.675474 
Ly       = 24.675474 Lz       = 24.675474 Density  = 1.019445 
Volume   = 15024.378182 
---------------- Step  2120000 ----- CPU =    737.4277 (sec) ----------------
Time     = 10600000.000000 Temp     = 248.973052 Press    = 1048.258657 
PotEng   = -10.503289 KinEng   = 0.740692 Lx       = 24.638329 
Ly       = 24.638329 Lz       = 24.638329 Density  = 1.024063 
Volume   = 14956.630137 
---------------- Step  2130000 ----- CPU =    744.1047 (sec) ----------------
Time     = 10650000.000000 Temp     = 231.631911 Press    = 1671.120659 
PotEng   = -10.486499 KinEng   = 0.689102 Lx       = 24.638493 
Ly       = 24.638493 Lz       = 24.638493 Density  = 1.024043 
Volume   = 14956.927883 
---------------- Step  2140000 ----- CPU =    750.6106 (sec) ----------------
Time     = 10700000.000000 Temp     = 223.495468 Press    = 1342.064855 
PotEng   = -10.524364 KinEng   = 0.664896 Lx       = 24.641613 
Ly       = 24.641613 Lz       = 24.641613 Density  = 1.023654 
Volume   = 14962.611069 
---------------- Step  2150000 ----- CPU =    757.1250 (sec) ----------------
Time     = 10750000.000000 Temp     = 236.180501 Press    = -474.600693 
PotEng   = -10.534354 KinEng   = 0.702634 Lx       = 24.733026 
Ly       = 24.733026 Lz       = 24.733026 Density  = 1.012345 
Volume   = 15129.750503 
---------------- Step  2160000 ----- CPU =    763.8294 (sec) ----------------
Time     = 10800000.000000 Temp     = 228.423435 Press    = 1241.611019 
PotEng   = -10.497297 KinEng   = 0.679557 Lx       = 24.571481 
Ly       = 24.571481 Lz       = 24.571481 Density  = 1.032444 
Volume   = 14835.220701 
---------------- Step  2170000 ----- CPU =    770.4254 (sec) ----------------
Time     = 10850000.000000 Temp     = 237.484971 Press    = 127.373172 
PotEng   = -10.539201 KinEng   = 0.706515 Lx       = 24.685352 
Ly       = 24.685352 Lz       = 24.685352 Density  = 1.018222 
Volume   = 15042.428410 
---------------- Step  2180000 ----- CPU =    777.0160 (sec) ----------------
Time     = 10900000.000000 Temp     = 231.642812 Press    = 1401.771687 
PotEng   = -10.429884 KinEng   = 0.689135 Lx       = 24.551402 
Ly       = 24.551402 Lz       = 24.551402 Density  = 1.034979 
Volume   = 14798.881333 
---------------- Step  2190000 ----- CPU =    783.6021 (sec) ----------------
Time     = 10950000.000000 Temp     = 222.813147 Press    = 709.259204 
PotEng   = -10.479440 KinEng   = 0.662866 Lx       = 24.661187 
Ly       = 24.661187 Lz       = 24.661187 Density  = 1.021218 
Volume   = 14998.296865 
---------------- Step  2200000 ----- CPU =    790.1537 (sec) ----------------
Time     = 11000000.000000 Temp     = 229.126547 Press    = 1341.613772 
PotEng   = -10.433174 KinEng   = 0.681649 Lx       = 24.639687 
Ly       = 24.639687 Lz       = 24.639687 Density  = 1.023894 
Volume   = 14959.103428 
---------------- Step  2210000 ----- CPU =    796.7641 (sec) ----------------
Time     = 11050000.000000 Temp     = 241.440840 Press    = 1264.309663 
PotEng   = -10.400771 KinEng   = 0.718284 Lx       = 24.609968 
Ly       = 24.609968 Lz       = 24.609968 Density  = 1.027608 
Volume   = 14905.040428 
---------------- Step  2220000 ----- CPU =    803.3662 (sec) ----------------
Time     = 11100000.000000 Temp     = 229.022402 Press    = 575.669126 
PotEng   = -10.460800 KinEng   = 0.681339 Lx       = 24.671294 
Ly       = 24.671294 Lz       = 24.671294 Density  = 1.019964 
Volume   = 15016.744300 
---------------- Step  2230000 ----- CPU =    809.9025 (sec) ----------------
Time     = 11150000.000000 Temp     = 228.363636 Press    = 624.955470 
PotEng   = -10.539602 KinEng   = 0.679379 Lx       = 24.644678 
Ly       = 24.644678 Lz       = 24.644678 Density  = 1.023272 
Volume   = 14968.195549 
---------------- Step  2240000 ----- CPU =    816.5136 (sec) ----------------
Time     = 11200000.000000 Temp     = 225.419896 Press    = 1189.500403 
PotEng   = -10.399677 KinEng   = 0.670622 Lx       = 24.644777 
Ly       = 24.644777 Lz       = 24.644777 Density  = 1.023260 
Volume   = 14968.376400 
---------------- Step  2250000 ----- CPU =    823.1166 (sec) ----------------
Time     = 11250000.000000 Temp     = 238.714002 Press    = 1609.544510 
PotEng   = -10.384617 KinEng   = 0.710171 Lx       = 24.656256 
Ly       = 24.656256 Lz       = 24.656256 Density  = 1.021831 
Volume   = 14989.300922 
---------------- Step  2260000 ----- CPU =    829.7915 (sec) ----------------
Time     = 11300000.000000 Temp     = 226.289888 Press    = 1403.010479 
PotEng   = -10.423434 KinEng   = 0.673210 Lx       = 24.597767 
Ly       = 24.597767 Lz       = 24.597767 Density  = 1.029138 
Volume   = 14882.881662 
---------------- Step  2270000 ----- CPU =    836.3603 (sec) ----------------
Time     = 11350000.000000 Temp     = 237.687453 Press    = 628.639304 
PotEng   = -10.501446 KinEng   = 0.707117 Lx       = 24.695606 
Ly       = 24.695606 Lz       = 24.695606 Density  = 1.016954 
Volume   = 15061.181494 
---------------- Step  2280000 ----- CPU =    842.8936 (sec) ----------------
Time     = 11400000.000000 Temp     = 230.968298 Press    = 1875.700619 
PotEng   = -10.505762 KinEng   = 0.687128 Lx       = 24.617244 
Ly       = 24.617244 Lz       = 24.617244 Density  = 1.026697 
Volume   = 14918.264802 
---------------- Step  2290000 ----- CPU =    849.4473 (sec) ----------------
Time     = 11450000.000000 Temp     = 231.948253 Press    = 252.494835 
PotEng   = -10.387109 KinEng   = 0.690043 Lx       = 24.776235 
Ly       = 24.776235 Lz       = 24.776235 Density  = 1.007058 
Volume   = 15209.184231 
---------------- Step  2300000 ----- CPU =    856.0626 (sec) ----------------
Time     = 11500000.000000 Temp     = 218.254405 Press    = 798.292180 
PotEng   = -10.474234 KinEng   = 0.649304 Lx       = 24.622779 
Ly       = 24.622779 Lz       = 24.622779 Density  = 1.026005 
Volume   = 14928.329906 
---------------- Step  2310000 ----- CPU =    862.6982 (sec) ----------------
Time     = 11550000.000000 Temp     = 226.035946 Press    = 1554.024528 
PotEng   = -10.438355 KinEng   = 0.672454 Lx       = 24.565241 
Ly       = 24.565241 Lz       = 24.565241 Density  = 1.033231 
Volume   = 14823.921399 
---------------- Step  2320000 ----- CPU =    869.3201 (sec) ----------------
Time     = 11600000.000000 Temp     = 241.220119 Press    = 1583.633774 
PotEng   = -10.509717 KinEng   = 0.717627 Lx       = 24.636292 
Ly       = 24.636292 Lz       = 24.636292 Density  = 1.024317 
Volume   = 14952.920214 
---------------- Step  2330000 ----- CPU =    875.9829 (sec) ----------------
Time     = 11650000.000000 Temp     = 237.846961 Press    = 1172.066357 
PotEng   = -10.436602 KinEng   = 0.707592 Lx       = 24.640492 
Ly       = 24.640492 Lz       = 24.640492 Density  = 1.023794 
Volume   = 14960.569135 
---------------- Step  2340000 ----- CPU =    882.5487 (sec) ----------------
Time     = 11700000.000000 Temp     = 230.386966 Press    = 1906.556433 
PotEng   = -10.447159 KinEng   = 0.685398 Lx       = 24.595146 
Ly       = 24.595146 Lz       = 24.595146 Density  = 1.029467 
Volume   = 14878.126094 
---------------- Step  2350000 ----- CPU =    889.0715 (sec) ----------------
Time     = 11750000.000000 Temp     = 217.231912 Press    = 1569.943191 
PotEng   = -10.403851 KinEng   = 0.646262 Lx       = 24.569521 
Ly       = 24.569521 Lz       = 24.569521 Density  = 1.032691 
Volume   = 14831.670195 
---------------- Step  2360000 ----- CPU =    895.6976 (sec) ----------------
Time     = 11800000.000000 Temp     = 237.196302 Press    = 1593.364662 
PotEng   = -10.457205 KinEng   = 0.705656 Lx       = 24.574442 
Ly       = 24.574442 Lz       = 24.574442 Density  = 1.032071 
Volume   = 14840.584775 
---------------- Step  2370000 ----- CPU =    902.2835 (sec) ----------------
Time     = 11850000.000000 Temp     = 233.959083 Press    = 1473.538301 
PotEng   = -10.449187 KinEng   = 0.696026 Lx       = 24.604076 
Ly       = 24.604076 Lz       = 24.604076 Density  = 1.028346 
Volume   = 14894.336734 
---------------- Step  2380000 ----- CPU =    908.8705 (sec) ----------------
Time     = 11900000.000000 Temp     = 231.528461 Press    = 653.957967 
PotEng   = -10.537049 KinEng   = 0.688794 Lx       = 24.605203 
Ly       = 24.605203 Lz       = 24.605203 Density  = 1.028205 
Volume   = 14896.383617 
---------------- Step  2390000 ----- CPU =    915.3951 (sec) ----------------
Time     = 11950000.000000 Temp     = 227.821369 Press    = 1908.432271 
PotEng   = -10.478269 KinEng   = 0.677766 Lx       = 24.598283 
Ly       = 24.598283 Lz       = 24.598283 Density  = 1.029073 
Volume   = 14883.818867 
---------------- Step  2400000 ----- CPU =    921.9226 (sec) ----------------
Time     = 12000000.000000 Temp     = 235.662152 Press    = 950.638484 
PotEng   = -10.554070 KinEng   = 0.701092 Lx       = 24.661132 
Ly       = 24.661132 Lz       = 24.661132 Density  = 1.021225 
Volume   = 14998.195900 
---------------- Step  2410000 ----- CPU =    928.4395 (sec) ----------------
Time     = 12050000.000000 Temp     = 232.157807 Press    = 887.648691 
PotEng   = -10.480073 KinEng   = 0.690667 Lx       = 24.602788 
Ly       = 24.602788 Lz       = 24.602788 Density  = 1.028508 
Volume   = 14891.997400 
---------------- Step  2420000 ----- CPU =    935.0648 (sec) ----------------
Time     = 12100000.000000 Temp     = 229.829069 Press    = 1435.806469 
PotEng   = -10.475739 KinEng   = 0.683739 Lx       = 24.571930 
Ly       = 24.571930 Lz       = 24.571930 Density  = 1.032387 
Volume   = 14836.033615 
---------------- Step  2430000 ----- CPU =    941.6858 (sec) ----------------
Time     = 12150000.000000 Temp     = 219.446981 Press    = 1033.100058 
PotEng   = -10.453236 KinEng   = 0.652852 Lx       = 24.672240 
Ly       = 24.672240 Lz       = 24.672240 Density  = 1.019846 
Volume   = 15018.471232 
---------------- Step  2440000 ----- CPU =    948.2318 (sec) ----------------
Time     = 12200000.000000 Temp     = 226.693956 Press    = 1639.562566 
PotEng   = -10.438065 KinEng   = 0.674412 Lx       = 24.600326 
Ly       = 24.600326 Lz       = 24.600326 Density  = 1.028817 
Volume   = 14887.527089 
---------------- Step  2450000 ----- CPU =    954.7904 (sec) ----------------
Time     = 12250000.000000 Temp     = 219.795127 Press    = 1572.081527 
PotEng   = -10.363362 KinEng   = 0.653888 Lx       = 24.609150 
Ly       = 24.609150 Lz       = 24.609150 Density  = 1.027710 
Volume   = 14903.554327 
---------------- Step  2460000 ----- CPU =    961.3672 (sec) ----------------
Time     = 12300000.000000 Temp     = 227.377630 Press    = 768.462753 
PotEng   = -10.595604 KinEng   = 0.676446 Lx       = 24.803198 
Ly       = 24.803198 Lz       = 24.803198 Density  = 1.003778 
Volume   = 15258.893913 
---------------- Step  2470000 ----- CPU =    967.9423 (sec) ----------------
Time     = 12350000.000000 Temp     = 232.641803 Press    = 1809.829591 
PotEng   = -10.504294 KinEng   = 0.692107 Lx       = 24.618750 
Ly       = 24.618750 Lz       = 24.618750 Density  = 1.026508 
Volume   = 14921.002293 
---------------- Step  2480000 ----- CPU =    974.4604 (sec) ----------------
Time     = 12400000.000000 Temp     = 236.145390 Press    = 1039.442008 
PotEng   = -10.437629 KinEng   = 0.702530 Lx       = 24.659588 
Ly       = 24.659588 Lz       = 24.659588 Density  = 1.021417 
Volume   = 14995.379029 
---------------- Step  2490000 ----- CPU =    981.1464 (sec) ----------------
Time     = 12450000.000000 Temp     = 212.584009 Press    = 624.768545 
PotEng   = -10.417899 KinEng   = 0.632435 Lx       = 24.673726 
Ly       = 24.673726 Lz       = 24.673726 Density  = 1.019662 
Volume   = 15021.184860 
---------------- Step  2500000 ----- CPU =    987.7027 (sec) ----------------
Time     = 12500000.000000 Temp     = 236.824458 Press    = 484.705566 
PotEng   = -10.430351 KinEng   = 0.704550 Lx       = 24.710874 
Ly       = 24.710874 Lz       = 24.710874 Density  = 1.015071 
Volume   = 15089.133424 
---------------- Step  2510000 ----- CPU =    994.2895 (sec) ----------------
Time     = 12550000.000000 Temp     = 237.050683 Press    = 831.281774 
PotEng   = -10.487683 KinEng   = 0.705223 Lx       = 24.638289 
Ly       = 24.638289 Lz       = 24.638289 Density  = 1.024068 
Volume   = 14956.556432 
---------------- Step  2520000 ----- CPU =   1000.9148 (sec) ----------------
Time     = 12600000.000000 Temp     = 225.176419 Press    = 416.726542 
PotEng   = -10.444321 KinEng   = 0.669897 Lx       = 24.653289 
Ly       = 24.653289 Lz       = 24.653289 Density  = 1.022200 
Volume   = 14983.889973 
---------------- Step  2530000 ----- CPU =   1007.5464 (sec) ----------------
Time     = 12650000.000000 Temp     = 232.324850 Press    = 2058.640160 
PotEng   = -10.450407 KinEng   = 0.691164 Lx       = 24.551734 
Ly       = 24.551734 Lz       = 24.551734 Density  = 1.034937 
Volume   = 14799.481765 
---------------- Step  2540000 ----- CPU =   1014.1591 (sec) ----------------
Time     = 12700000.000000 Temp     = 226.948475 Press    = 656.122815 
PotEng   = -10.434294 KinEng   = 0.675169 Lx       = 24.598980 
Ly       = 24.598980 Lz       = 24.598980 Density  = 1.028985 
Volume   = 14885.083762 
---------------- Step  2550000 ----- CPU =   1020.6820 (sec) ----------------
Time     = 12750000.000000 Temp     = 230.475668 Press    = 689.310146 
PotEng   = -10.472021 KinEng   = 0.685662 Lx       = 24.707938 
Ly       = 24.707938 Lz       = 24.707938 Density  = 1.015432 
Volume   = 15083.756056 
---------------- Step  2560000 ----- CPU =   1027.5799 (sec) ----------------
Time     = 12800000.000000 Temp     = 237.171075 Press    = 365.901116 
PotEng   = -10.462367 KinEng   = 0.705581 Lx       = 24.674406 
Ly       = 24.674406 Lz       = 24.674406 Density  = 1.019578 
Volume   = 15022.428356 
---------------- Step  2570000 ----- CPU =   1034.0976 (sec) ----------------
Time     = 12850000.000000 Temp     = 224.193049 Press    = 647.363139 
PotEng   = -10.431971 KinEng   = 0.666972 Lx       = 24.710039 
Ly       = 24.710039 Lz       = 24.710039 Density  = 1.015173 
Volume   = 15087.603962 
---------------- Step  2580000 ----- CPU =   1040.8567 (sec) ----------------
Time     = 12900000.000000 Temp     = 210.891723 Press    = 307.251005 
PotEng   = -10.460525 KinEng   = 0.627400 Lx       = 24.706384 
Ly       = 24.706384 Lz       = 24.706384 Density  = 1.015624 
Volume   = 15080.911067 
---------------- Step  2590000 ----- CPU =   1047.4503 (sec) ----------------
Time     = 12950000.000000 Temp     = 221.246680 Press    = 1515.316469 
PotEng   = -10.497392 KinEng   = 0.658206 Lx       = 24.582637 
Ly       = 24.582637 Lz       = 24.582637 Density  = 1.031039 
Volume   = 14855.435198 
---------------- Step  2600000 ----- CPU =   1054.0284 (sec) ----------------
Time     = 13000000.000000 Temp     = 232.980288 Press    = 1460.909424 
PotEng   = -10.487476 KinEng   = 0.693114 Lx       = 24.641955 
Ly       = 24.641955 Lz       = 24.641955 Density  = 1.023611 
Volume   = 14963.235147 
---------------- Step  2610000 ----- CPU =   1060.5701 (sec) ----------------
Time     = 13050000.000000 Temp     = 223.278825 Press    = 1594.958918 
PotEng   = -10.472443 KinEng   = 0.664252 Lx       = 24.621333 
Ly       = 24.621333 Lz       = 24.621333 Density  = 1.026185 
Volume   = 14925.699701 
---------------- Step  2620000 ----- CPU =   1067.1164 (sec) ----------------
Time     = 13100000.000000 Temp     = 236.318999 Press    = 990.209664 
PotEng   = -10.504395 KinEng   = 0.703046 Lx       = 24.583788 
Ly       = 24.583788 Lz       = 24.583788 Density  = 1.030894 
Volume   = 14857.522739 
---------------- Step  2630000 ----- CPU =   1073.7345 (sec) ----------------
Time     = 13150000.000000 Temp     = 224.540289 Press    = 1018.209365 
PotEng   = -10.441584 KinEng   = 0.668005 Lx       = 24.666904 
Ly       = 24.666904 Lz       = 24.666904 Density  = 1.020508 
Volume   = 15008.728825 
---------------- Step  2640000 ----- CPU =   1080.3241 (sec) ----------------
Time     = 13200000.000000 Temp     = 229.539278 Press    = 1049.101467 
PotEng   = -10.458524 KinEng   = 0.682877 Lx       = 24.587422 
Ly       = 24.587422 Lz       = 24.587422 Density  = 1.030437 
Volume   = 14864.112559 
---------------- Step  2650000 ----- CPU =   1086.9969 (sec) ----------------
Time     = 13250000.000000 Temp     = 228.713543 Press    = 686.728864 
PotEng   = -10.425008 KinEng   = 0.680420 Lx       = 24.621949 
Ly       = 24.621949 Lz       = 24.621949 Density  = 1.026108 
Volume   = 14926.819988 
---------------- Step  2660000 ----- CPU =   1093.5526 (sec) ----------------
Time     = 13300000.000000 Temp     = 226.008401 Press    = 667.069584 
PotEng   = -10.505041 KinEng   = 0.672372 Lx       = 24.632255 
Ly       = 24.632255 Lz       = 24.632255 Density  = 1.024821 
Volume   = 14945.571546 
---------------- Step  2670000 ----- CPU =   1100.1601 (sec) ----------------
Time     = 13350000.000000 Temp     = 221.670438 Press    = 129.710686 
PotEng   = -10.406034 KinEng   = 0.659467 Lx       = 24.702225 
Ly       = 24.702225 Lz       = 24.702225 Density  = 1.016137 
Volume   = 15073.296014 
---------------- Step  2680000 ----- CPU =   1106.7900 (sec) ----------------
Time     = 13400000.000000 Temp     = 235.684681 Press    = 1925.801287 
PotEng   = -10.481111 KinEng   = 0.701159 Lx       = 24.642554 
Ly       = 24.642554 Lz       = 24.642554 Density  = 1.023537 
Volume   = 14964.325104 
---------------- Step  2690000 ----- CPU =   1113.2982 (sec) ----------------
Time     = 13450000.000000 Temp     = 224.605114 Press    = 629.714508 
PotEng   = -10.433068 KinEng   = 0.668198 Lx       = 24.672490 
Ly       = 24.672490 Lz       = 24.672490 Density  = 1.019815 
Volume   = 15018.928880 
---------------- Step  2700000 ----- CPU =   1119.8903 (sec) ----------------
Time     = 13500000.000000 Temp     = 221.316050 Press    = 423.196131 
PotEng   = -10.458820 KinEng   = 0.658413 Lx       = 24.593194 
Ly       = 24.593194 Lz       = 24.593194 Density  = 1.029712 
Volume   = 14874.583798 
---------------- Step  2710000 ----- CPU =   1126.4980 (sec) ----------------
Time     = 13550000.000000 Temp     = 219.415548 Press    = 1254.097434 
PotEng   = -10.514867 KinEng   = 0.652759 Lx       = 24.554842 
Ly       = 24.554842 Lz       = 24.554842 Density  = 1.034544 
Volume   = 14805.102523 
---------------- Step  2720000 ----- CPU =   1133.0939 (sec) ----------------
Time     = 13600000.000000 Temp     = 218.813694 Press    = 526.449230 
PotEng   = -10.440054 KinEng   = 0.650968 Lx       = 24.727759 
Ly       = 24.727759 Lz       = 24.727759 Density  = 1.012993 
Volume   = 15120.085749 
---------------- Step  2730000 ----- CPU =   1139.6029 (sec) ----------------
Time     = 13650000.000000 Temp     = 229.455498 Press    = 1336.151425 
PotEng   = -10.473313 KinEng   = 0.682627 Lx       = 24.646753 
Ly       = 24.646753 Lz       = 24.646753 Density  = 1.023014 
Volume   = 14971.975920 
---------------- Step  2740000 ----- CPU =   1146.1547 (sec) ----------------
Time     = 13700000.000000 Temp     = 213.110273 Press    = 781.782519 
PotEng   = -10.467499 KinEng   = 0.634001 Lx       = 24.700603 
Ly       = 24.700603 Lz       = 24.700603 Density  = 1.016337 
Volume   = 15070.326084 
---------------- Step  2750000 ----- CPU =   1152.7699 (sec) ----------------
Time     = 13750000.000000 Temp     = 232.017250 Press    = 1502.878247 
PotEng   = -10.511209 KinEng   = 0.690249 Lx       = 24.600509 
Ly       = 24.600509 Lz       = 24.600509 Density  = 1.028794 
Volume   = 14887.860149 
---------------- Step  2760000 ----- CPU =   1159.3373 (sec) ----------------
Time     = 13800000.000000 Temp     = 233.940660 Press    = 1506.486008 
PotEng   = -10.448637 KinEng   = 0.695971 Lx       = 24.634047 
Ly       = 24.634047 Lz       = 24.634047 Density  = 1.024597 
Volume   = 14948.832839 
---------------- Step  2770000 ----- CPU =   1165.9284 (sec) ----------------
Time     = 13850000.000000 Temp     = 234.870248 Press    = 617.308777 
PotEng   = -10.528849 KinEng   = 0.698736 Lx       = 24.685140 
Ly       = 24.685140 Lz       = 24.685140 Density  = 1.018248 
Volume   = 15042.041616 
---------------- Step  2780000 ----- CPU =   1172.5647 (sec) ----------------
Time     = 13900000.000000 Temp     = 233.536291 Press    = 879.883135 
PotEng   = -10.454151 KinEng   = 0.694768 Lx       = 24.631571 
Ly       = 24.631571 Lz       = 24.631571 Density  = 1.024906 
Volume   = 14944.326455 
---------------- Step  2790000 ----- CPU =   1179.1674 (sec) ----------------
Time     = 13950000.000000 Temp     = 237.211608 Press    = 1405.502058 
PotEng   = -10.476433 KinEng   = 0.705702 Lx       = 24.612689 
Ly       = 24.612689 Lz       = 24.612689 Density  = 1.027267 
Volume   = 14909.984100 
---------------- Step  2800000 ----- CPU =   1185.7068 (sec) ----------------
Time     = 14000000.000000 Temp     = 231.000963 Press    = 1590.779266 
PotEng   = -10.462383 KinEng   = 0.687225 Lx       = 24.619250 
Ly       = 24.619250 Lz       = 24.619250 Density  = 1.026446 
Volume   = 14921.911280 
---------------- Step  2810000 ----- CPU =   1192.3231 (sec) ----------------
Time     = 14050000.000000 Temp     = 239.269696 Press    = 673.707108 
PotEng   = -10.529579 KinEng   = 0.711825 Lx       = 24.656125 
Ly       = 24.656125 Lz       = 24.656125 Density  = 1.021847 
Volume   = 14989.063244 
---------------- Step  2820000 ----- CPU =   1198.9472 (sec) ----------------
Time     = 14100000.000000 Temp     = 230.718317 Press    = 1702.098983 
PotEng   = -10.491424 KinEng   = 0.686384 Lx       = 24.663722 
Ly       = 24.663722 Lz       = 24.663722 Density  = 1.020903 
Volume   = 15002.922802 
---------------- Step  2830000 ----- CPU =   1205.4339 (sec) ----------------
Time     = 14150000.000000 Temp     = 229.802697 Press    = 1898.130380 
PotEng   = -10.501894 KinEng   = 0.683660 Lx       = 24.628922 
Ly       = 24.628922 Lz       = 24.628922 Density  = 1.025237 
Volume   = 14939.505223 
---------------- Step  2840000 ----- CPU =   1212.0407 (sec) ----------------
Time     = 14200000.000000 Temp     = 226.149290 Press    = 1015.881997 
PotEng   = -10.462551 KinEng   = 0.672791 Lx       = 24.650906 
Ly       = 24.650906 Lz       = 24.650906 Density  = 1.022497 
Volume   = 14979.546257 
---------------- Step  2850000 ----- CPU =   1218.5801 (sec) ----------------
Time     = 14250000.000000 Temp     = 224.886213 Press    = 1021.433762 
PotEng   = -10.490667 KinEng   = 0.669034 Lx       = 24.557421 
Ly       = 24.557421 Lz       = 24.557421 Density  = 1.034218 
Volume   = 14809.768856 
---------------- Step  2860000 ----- CPU =   1225.1082 (sec) ----------------
Time     = 14300000.000000 Temp     = 242.800200 Press    = 1356.131287 
PotEng   = -10.512838 KinEng   = 0.722328 Lx       = 24.664740 
Ly       = 24.664740 Lz       = 24.664740 Density  = 1.020777 
Volume   = 15004.779160 
---------------- Step  2870000 ----- CPU =   1231.7209 (sec) ----------------
Time     = 14350000.000000 Temp     = 221.165458 Press    = 1263.726918 
PotEng   = -10.473808 KinEng   = 0.657965 Lx       = 24.695225 
Ly       = 24.695225 Lz       = 24.695225 Density  = 1.017001 
Volume   = 15060.485634 
---------------- Step  2880000 ----- CPU =   1238.3263 (sec) ----------------
Time     = 14400000.000000 Temp     = 232.493815 Press    = 1231.272278 
PotEng   = -10.503390 KinEng   = 0.691666 Lx       = 24.677994 
Ly       = 24.677994 Lz       = 24.677994 Density  = 1.019133 
Volume   = 15028.981477 
---------------- Step  2890000 ----- CPU =   1244.8766 (sec) ----------------
Time     = 14450000.000000 Temp     = 217.662319 Press    = 340.288248 
PotEng   = -10.442687 KinEng   = 0.647543 Lx       = 24.742784 
Ly       = 24.742784 Lz       = 24.742784 Density  = 1.011148 
Volume   = 15147.665630 
---------------- Step  2900000 ----- CPU =   1251.4895 (sec) ----------------
Time     = 14500000.000000 Temp     = 212.816745 Press    = 879.715762 
PotEng   = -10.403618 KinEng   = 0.633127 Lx       = 24.610205 
Ly       = 24.610205 Lz       = 24.610205 Density  = 1.027578 
Volume   = 14905.471319 
---------------- Step  2910000 ----- CPU =   1258.0439 (sec) ----------------
Time     = 14550000.000000 Temp     = 234.383632 Press    = 1092.815370 
PotEng   = -10.442562 KinEng   = 0.697289 Lx       = 24.644948 
Ly       = 24.644948 Lz       = 24.644948 Density  = 1.023238 
Volume   = 14968.687924 
---------------- Step  2920000 ----- CPU =   1264.6927 (sec) ----------------
Time     = 14600000.000000 Temp     = 242.113039 Press    = 978.070420 
PotEng   = -10.412670 KinEng   = 0.720283 Lx       = 24.678384 
Ly       = 24.678384 Lz       = 24.678384 Density  = 1.019085 
Volume   = 15029.694246 
---------------- Step  2930000 ----- CPU =   1271.2776 (sec) ----------------
Time     = 14650000.000000 Temp     = 227.175833 Press    = 1092.388355 
PotEng   = -10.480842 KinEng   = 0.675845 Lx       = 24.651518 
Ly       = 24.651518 Lz       = 24.651518 Density  = 1.022420 
Volume   = 14980.662774 
---------------- Step  2940000 ----- CPU =   1277.8834 (sec) ----------------
Time     = 14700000.000000 Temp     = 215.472478 Press    = 728.021812 
PotEng   = -10.464639 KinEng   = 0.641028 Lx       = 24.572703 
Ly       = 24.572703 Lz       = 24.572703 Density  = 1.032290 
Volume   = 14837.434667 
---------------- Step  2950000 ----- CPU =   1284.4754 (sec) ----------------
Time     = 14750000.000000 Temp     = 250.956751 Press    = 636.875792 
PotEng   = -10.465099 KinEng   = 0.746593 Lx       = 24.634406 
Ly       = 24.634406 Lz       = 24.634406 Density  = 1.024553 
Volume   = 14949.486687 
---------------- Step  2960000 ----- CPU =   1291.0723 (sec) ----------------
Time     = 14800000.000000 Temp     = 244.633001 Press    = 1037.915970 
PotEng   = -10.531659 KinEng   = 0.727780 Lx       = 24.662800 
Ly       = 24.662800 Lz       = 24.662800 Density  = 1.021018 
Volume   = 15001.238954 
---------------- Step  2970000 ----- CPU =   1297.6854 (sec) ----------------
Time     = 14850000.000000 Temp     = 222.842422 Press    = -117.481323 
PotEng   = -10.464404 KinEng   = 0.662954 Lx       = 24.688957 
Ly       = 24.688957 Lz       = 24.688957 Density  = 1.017776 
Volume   = 15049.020860 
---------------- Step  2980000 ----- CPU =   1304.2776 (sec) ----------------
Time     = 14900000.000000 Temp     = 223.660720 Press    = 751.732568 
PotEng   = -10.448763 KinEng   = 0.665388 Lx       = 24.662281 
Ly       = 24.662281 Lz       = 24.662281 Density  = 1.021082 
Volume   = 15000.292821 
---------------- Step  2990000 ----- CPU =   1310.9094 (sec) ----------------
Time     = 14950000.000000 Temp     = 225.300105 Press    = 1100.557420 
PotEng   = -10.491582 KinEng   = 0.670265 Lx       = 24.692903 
Ly       = 24.692903 Lz       = 24.692903 Density  = 1.017288 
Volume   = 15056.236710 
---------------- Step  3000000 ----- CPU =   1317.4331 (sec) ----------------
Time     = 15000000.000000 Temp     = 240.322396 Press    = 833.451408 
PotEng   = -10.552957 KinEng   = 0.714956 Lx       = 24.679006 
Ly       = 24.679006 Lz       = 24.679006 Density  = 1.019008 
Volume   = 15030.831860 
Loop time of 1317.43 on 6 procs for 2000000 steps with 512 atoms

Performance: 655.821 ns/day, 0.037 hours/ns, 1518.103 timesteps/s
97.1% CPU use with 6 MPI tasks x no OpenMP threads

MPI task timing breakdown:
Section |  min time  |  avg time  |  max time  |%varavg| %total
---------------------------------------------------------------
Pair    | 1114.2     | 1118.7     | 1125.5     |  10.8 | 84.92
Neigh   | 27.765     | 27.81      | 27.841     |   0.5 |  2.11
Comm    | 135.02     | 142.65     | 146.93     |  31.5 | 10.83
Output  | 0.0059416  | 0.0098841  | 0.029135   |   8.7 |  0.00
Modify  | 22.37      | 23.419     | 24.154     |  13.3 |  1.78
Other   |            | 4.823      |            |       |  0.37

Nlocal:    85.3333 ave 89 max 78 min
Histogram: 1 0 0 1 0 0 0 0 1 3
Nghost:    575.333 ave 585 max 566 min
Histogram: 1 0 1 2 0 0 0 0 0 2
Neighs:    0 ave 0 max 0 min
Histogram: 6 0 0 0 0 0 0 0 0 0
FullNghs:  2922 ave 3060 max 2657 min
Histogram: 1 0 1 0 0 0 0 0 2 2

Total # of neighbors = 17532
Ave neighs/atom = 34.2422
Neighbor list builds = 109603
Dangerous builds = 0
System init for write_data ...
Total wall time: 0:32:46
