mW.lmp - created by mBuild; units = real

512 atoms
0 bonds
0 angles
0 dihedrals
0 impropers

1 atom types

0.000000 24.834001 xlo xhi
0.000000 24.834001 ylo yhi
0.000000 24.834001 zlo zhi

Masses

1	18.015300	# cg water

Atoms

1	0	1	0.000000	11.943578	7.595742	18.529249
2	0	1	0.000000	15.461083	21.520596	20.025107
3	0	1	0.000000	7.218271	8.547198	8.743884
4	0	1	0.000000	8.740178	4.013542	3.034801
5	0	1	0.000000	18.430525	3.842506	9.066525
6	0	1	0.000000	6.906175	18.332469	1.834423
7	0	1	0.000000	10.151485	6.604541	20.516912
8	0	1	0.000000	1.839223	0.901506	5.492612
9	0	1	0.000000	16.475517	8.806820	6.702413
10	0	1	0.000000	0.152475	1.840920	19.677919
11	0	1	0.000000	10.509241	18.157903	10.707714
12	0	1	0.000000	8.156261	0.856346	2.316209
13	0	1	0.000000	19.862352	20.023302	2.335098
14	0	1	0.000000	17.109938	14.873674	6.000902
15	0	1	0.000000	15.782923	11.551970	12.990655
16	0	1	0.000000	20.712111	22.369583	3.527063
17	0	1	0.000000	17.650895	16.397890	9.293965
18	0	1	0.000000	6.790044	17.275737	9.476807
19	0	1	0.000000	4.057203	10.715356	22.833877
20	0	1	0.000000	14.538437	0.684989	7.607650
21	0	1	0.000000	14.360721	14.988715	9.902026
22	0	1	0.000000	9.319702	17.941735	20.390002
23	0	1	0.000000	21.922041	13.215349	9.459430
24	0	1	0.000000	20.864919	1.768670	6.498322
25	0	1	0.000000	12.232323	5.878820	2.129502
26	0	1	0.000000	19.359594	4.466275	19.148876
27	0	1	0.000000	10.917167	19.212451	2.835561
28	0	1	0.000000	9.898238	5.696565	12.653416
29	0	1	0.000000	12.270622	3.623599	8.603285
30	0	1	0.000000	11.691098	12.393079	18.903231
31	0	1	0.000000	13.860395	3.993410	10.156882
32	0	1	0.000000	9.373589	5.203807	22.581641
33	0	1	0.000000	13.547254	9.159581	21.547489
34	0	1	0.000000	15.676360	9.088705	15.021305
35	0	1	0.000000	10.174164	12.360001	0.702649
36	0	1	0.000000	12.241874	22.094889	6.417035
37	0	1	0.000000	16.748161	17.466006	18.855435
38	0	1	0.000000	12.193284	1.086791	18.476638
39	0	1	0.000000	22.340466	16.145716	4.743190
40	0	1	0.000000	1.784785	19.589799	8.262470
41	0	1	0.000000	7.252179	9.410467	15.815833
42	0	1	0.000000	13.664789	8.255690	0.700321
43	0	1	0.000000	17.092669	17.779557	10.917243
44	0	1	0.000000	22.433530	2.032974	8.315087
45	0	1	0.000000	11.513186	3.904886	13.901547
46	0	1	0.000000	20.482688	15.847900	12.165434
47	0	1	0.000000	15.830598	4.393185	20.767884
48	0	1	0.000000	2.288235	4.901479	18.771702
49	0	1	0.000000	15.248508	10.702127	16.953816
50	0	1	0.000000	10.978005	14.274013	8.346064
51	0	1	0.000000	21.914318	0.611087	14.079157
52	0	1	0.000000	17.912762	13.914934	10.669809
53	0	1	0.000000	11.790410	1.640795	14.518555
54	0	1	0.000000	12.804342	21.325484	21.653932
55	0	1	0.000000	13.547672	17.647394	0.208638
56	0	1	0.000000	11.114099	11.843701	22.161529
57	0	1	0.000000	5.308273	19.246694	15.681826
58	0	1	0.000000	20.398385	21.988229	19.914679
59	0	1	0.000000	22.010723	13.489746	3.477887
60	0	1	0.000000	17.047331	11.634209	2.142041
61	0	1	0.000000	16.569661	10.315214	9.131139
62	0	1	0.000000	21.810183	0.252042	9.510534
63	0	1	0.000000	0.893112	9.851039	10.286047
64	0	1	0.000000	4.913326	5.141133	3.652242
65	0	1	0.000000	19.430308	15.422370	10.154922
66	0	1	0.000000	13.436142	3.385167	4.101998
67	0	1	0.000000	15.484722	6.349147	13.152714
68	0	1	0.000000	22.826449	7.749691	11.263422
69	0	1	0.000000	4.831476	21.751130	20.377884
70	0	1	0.000000	10.294242	17.820514	6.193740
71	0	1	0.000000	17.366789	13.438469	14.970795
72	0	1	0.000000	12.669201	1.711654	2.602363
73	0	1	0.000000	22.492124	7.909971	20.373596
74	0	1	0.000000	0.000090	22.246012	0.981400
75	0	1	0.000000	12.869515	4.733378	17.930093
76	0	1	0.000000	0.021930	9.233947	17.820970
77	0	1	0.000000	1.524964	3.029633	9.140342
78	0	1	0.000000	17.778533	4.778715	21.770175
79	0	1	0.000000	19.547938	20.085594	18.399853
80	0	1	0.000000	15.859052	16.185934	13.622481
81	0	1	0.000000	2.496078	13.318960	9.457546
82	0	1	0.000000	7.098752	11.124785	2.865145
83	0	1	0.000000	15.975869	3.405053	14.505464
84	0	1	0.000000	22.833758	10.702400	20.226559
85	0	1	0.000000	20.483603	7.304513	21.477013
86	0	1	0.000000	19.554110	11.666672	21.395830
87	0	1	0.000000	5.255923	21.905644	12.449387
88	0	1	0.000000	15.579298	21.588238	0.000173
89	0	1	0.000000	11.627290	2.566147	22.400387
90	0	1	0.000000	1.672347	8.067389	11.609404
91	0	1	0.000000	8.664461	7.258303	3.431912
92	0	1	0.000000	6.461291	13.944530	5.092006
93	0	1	0.000000	21.137817	9.286350	11.824683
94	0	1	0.000000	14.014678	7.004156	6.877649
95	0	1	0.000000	22.664849	14.676457	22.833851
96	0	1	0.000000	9.090600	18.968030	8.353907
97	0	1	0.000000	21.572358	18.765125	18.509493
98	0	1	0.000000	18.907252	11.361275	3.608301
99	0	1	0.000000	19.321156	6.792823	19.271089
100	0	1	0.000000	18.820968	19.096509	6.755983
101	0	1	0.000000	19.948832	4.729001	10.639317
102	0	1	0.000000	16.832019	12.875887	4.241141
103	0	1	0.000000	0.898877	10.461314	19.953333
104	0	1	0.000000	14.355890	6.358077	1.590266
105	0	1	0.000000	14.807907	9.955143	7.857153
106	0	1	0.000000	20.347649	11.930426	10.845960
107	0	1	0.000000	8.134530	4.130634	0.802735
108	0	1	0.000000	15.113538	19.346744	11.659123
109	0	1	0.000000	10.375959	8.898533	0.396365
110	0	1	0.000000	17.314409	14.153679	19.644653
111	0	1	0.000000	8.875640	15.299189	11.382886
112	0	1	0.000000	22.026206	21.790739	15.772043
113	0	1	0.000000	22.084056	11.324254	3.095563
114	0	1	0.000000	11.693700	16.028137	11.172921
115	0	1	0.000000	0.639463	12.918228	3.594558
116	0	1	0.000000	7.105162	18.354205	17.037301
117	0	1	0.000000	2.427284	13.492754	19.010808
118	0	1	0.000000	10.608953	7.790371	16.239822
119	0	1	0.000000	20.238032	16.320389	19.668078
120	0	1	0.000000	1.380775	4.317863	12.487010
121	0	1	0.000000	10.425855	7.285720	22.594453
122	0	1	0.000000	9.011610	7.021208	11.133739
123	0	1	0.000000	13.866916	18.843654	3.323797
124	0	1	0.000000	17.207295	4.253622	5.865958
125	0	1	0.000000	11.600242	7.014347	14.412924
126	0	1	0.000000	6.939962	14.672111	10.181341
127	0	1	0.000000	15.907740	7.687652	18.647412
128	0	1	0.000000	22.009562	5.512480	10.736685
129	0	1	0.000000	4.462502	7.856225	4.244247
130	0	1	0.000000	20.906989	10.533871	15.024964
131	0	1	0.000000	3.487735	16.669231	16.214378
132	0	1	0.000000	22.692971	8.679873	0.427098
133	0	1	0.000000	14.722543	2.960311	17.206299
134	0	1	0.000000	10.766668	10.041614	4.348555
135	0	1	0.000000	5.194405	14.732328	13.448020
136	0	1	0.000000	20.777415	22.823669	12.462158
137	0	1	0.000000	14.246973	16.777440	21.548758
138	0	1	0.000000	17.767638	11.798152	6.674983
139	0	1	0.000000	12.934287	5.924282	10.798735
140	0	1	0.000000	12.172078	13.910321	13.230156
141	0	1	0.000000	7.270810	17.330897	20.917107
142	0	1	0.000000	-0.001951	13.531367	13.733112
143	0	1	0.000000	10.005478	1.493863	9.205148
144	0	1	0.000000	20.026109	2.147397	0.000395
145	0	1	0.000000	8.946412	16.853620	18.412475
146	0	1	0.000000	18.741480	0.000083	15.503148
147	0	1	0.000000	19.970126	6.506810	12.013030
148	0	1	0.000000	13.307989	0.060226	15.024509
149	0	1	0.000000	16.563383	21.749750	3.598204
150	0	1	0.000000	3.273081	11.779890	3.553219
151	0	1	0.000000	5.153861	15.759335	3.672207
152	0	1	0.000000	17.893447	7.023247	10.745155
153	0	1	0.000000	14.029842	10.165027	13.035572
154	0	1	0.000000	22.248225	12.084744	6.049112
155	0	1	0.000000	7.462043	22.833841	22.610849
156	0	1	0.000000	19.590693	4.714554	4.323558
157	0	1	0.000000	17.935108	6.126628	17.533192
158	0	1	0.000000	22.181471	2.361834	3.942156
159	0	1	0.000000	6.090478	0.782242	19.274737
160	0	1	0.000000	10.438942	10.412543	17.983084
161	0	1	0.000000	21.955681	19.503837	7.167838
162	0	1	0.000000	16.423594	10.196517	11.330675
163	0	1	0.000000	13.972206	14.551139	12.074365
164	0	1	0.000000	14.894473	6.381965	4.878616
165	0	1	0.000000	11.849105	6.383752	0.016513
166	0	1	0.000000	0.227686	7.477183	0.294478
167	0	1	0.000000	14.403669	14.914818	0.314483
168	0	1	0.000000	3.648431	3.988574	15.714030
169	0	1	0.000000	17.687970	11.196897	14.384315
170	0	1	0.000000	8.575422	7.588265	5.612607
171	0	1	0.000000	18.939160	2.722928	14.766273
172	0	1	0.000000	20.607263	6.705121	2.229762
173	0	1	0.000000	7.172070	5.136967	18.727282
174	0	1	0.000000	7.227347	7.204689	20.799166
175	0	1	0.000000	8.216070	17.648152	15.177239
176	0	1	0.000000	11.679474	12.474470	6.592493
177	0	1	0.000000	5.422699	12.220231	13.950443
178	0	1	0.000000	8.685721	14.849088	1.401791
179	0	1	0.000000	17.540148	7.727301	14.507228
180	0	1	0.000000	13.333879	4.271793	22.474361
181	0	1	0.000000	12.541110	9.703219	1.917977
182	0	1	0.000000	0.394813	17.386517	9.001844
183	0	1	0.000000	1.990561	22.833888	5.252938
184	0	1	0.000000	9.537085	7.364923	18.466382
185	0	1	0.000000	22.238625	0.000611	5.879632
186	0	1	0.000000	22.613742	19.000251	9.843161
187	0	1	0.000000	17.712797	4.965969	15.660817
188	0	1	0.000000	15.957912	11.259223	20.465450
189	0	1	0.000000	5.688715	2.370403	0.603518
190	0	1	0.000000	14.196628	2.514285	19.297632
191	0	1	0.000000	10.550096	2.332196	7.075535
192	0	1	0.000000	22.833630	13.110080	17.225808
193	0	1	0.000000	0.332671	21.193444	15.269853
194	0	1	0.000000	3.762376	18.895412	10.387549
195	0	1	0.000000	13.935290	11.902383	8.393123
196	0	1	0.000000	8.392835	22.099111	18.822838
197	0	1	0.000000	8.965752	16.584575	9.025569
198	0	1	0.000000	19.731515	18.324387	4.412714
199	0	1	0.000000	15.063062	11.926736	22.771112
200	0	1	0.000000	4.672032	0.636009	3.107152
201	0	1	0.000000	15.541618	6.977200	22.170305
202	0	1	0.000000	14.428656	8.931965	5.900956
203	0	1	0.000000	12.558264	19.955227	0.056064
204	0	1	0.000000	12.009798	2.819613	16.499966
205	0	1	0.000000	5.343218	3.639686	21.212502
206	0	1	0.000000	17.960840	2.342923	0.783348
207	0	1	0.000000	16.362041	5.694714	3.240568
208	0	1	0.000000	13.896428	3.998563	15.070254
209	0	1	0.000000	9.789970	12.741352	9.386224
210	0	1	0.000000	4.903523	5.978211	17.426303
211	0	1	0.000000	10.506890	15.520388	3.673801
212	0	1	0.000000	0.193648	4.666364	4.168913
213	0	1	0.000000	16.013627	12.425428	0.307167
214	0	1	0.000000	5.891893	22.211921	18.331338
215	0	1	0.000000	6.188791	17.282196	13.304409
216	0	1	0.000000	3.692796	16.809673	11.978385
217	0	1	0.000000	11.033139	14.693471	6.098955
218	0	1	0.000000	13.081580	20.898840	2.202106
219	0	1	0.000000	3.646108	2.557456	19.670976
220	0	1	0.000000	13.602149	12.407194	12.422037
221	0	1	0.000000	5.090688	22.448327	7.731377
222	0	1	0.000000	17.833860	4.752767	12.367543
223	0	1	0.000000	6.381694	14.288774	18.724359
224	0	1	0.000000	19.686064	21.432465	9.936883
225	0	1	0.000000	1.413991	6.101361	9.964759
226	0	1	0.000000	2.749035	0.465572	7.817569
227	0	1	0.000000	8.520691	11.305106	11.444905
228	0	1	0.000000	14.502809	12.843474	16.823749
229	0	1	0.000000	6.866919	15.501374	15.413584
230	0	1	0.000000	6.959323	4.289370	22.833764
231	0	1	0.000000	15.002446	0.825659	11.888633
232	0	1	0.000000	21.177217	15.771084	2.915881
233	0	1	0.000000	3.308759	12.838062	22.833014
234	0	1	0.000000	22.742168	9.828314	22.243796
235	0	1	0.000000	4.631328	22.832921	0.980772
236	0	1	0.000000	7.253674	16.168745	2.724237
237	0	1	0.000000	0.052050	14.995760	22.318646
238	0	1	0.000000	6.393554	7.405000	6.707952
239	0	1	0.000000	17.535512	13.558660	22.833885
240	0	1	0.000000	22.836567	17.990539	5.834856
241	0	1	0.000000	18.227885	9.885312	20.177342
242	0	1	0.000000	8.904486	2.992547	17.125886
243	0	1	0.000000	1.068405	2.522071	14.910378
244	0	1	0.000000	2.584169	5.478415	1.705729
245	0	1	0.000000	3.748020	13.939437	2.051065
246	0	1	0.000000	8.090713	13.131640	7.964894
247	0	1	0.000000	8.994379	2.342992	5.130451
248	0	1	0.000000	3.835566	18.189516	-0.003838
249	0	1	0.000000	4.342260	1.243374	9.172575
250	0	1	0.000000	10.409788	18.784674	15.514992
251	0	1	0.000000	0.001337	1.061019	7.040010
252	0	1	0.000000	21.952990	3.782846	20.451369
253	0	1	0.000000	15.518237	19.290780	18.741513
254	0	1	0.000000	10.177349	10.221079	12.412190
255	0	1	0.000000	13.649538	7.803493	14.140132
256	0	1	0.000000	16.291381	16.911965	4.146913
257	0	1	0.000000	19.683577	22.250878	7.840786
258	0	1	0.000000	22.174801	20.839764	5.198065
259	0	1	0.000000	13.923012	6.877358	16.580730
260	0	1	0.000000	4.972958	19.390445	22.634908
261	0	1	0.000000	6.795644	3.246535	2.348213
262	0	1	0.000000	11.569988	6.218176	8.801501
263	0	1	0.000000	22.744782	9.670883	14.176829
264	0	1	0.000000	21.651822	17.926859	16.386712
265	0	1	0.000000	2.295578	19.916530	13.921228
266	0	1	0.000000	5.467356	20.993551	9.897401
267	0	1	0.000000	2.094707	21.507660	0.389860
268	0	1	0.000000	9.539214	21.672264	0.582949
269	0	1	0.000000	6.200885	2.982862	13.902170
270	0	1	0.000000	13.704769	17.216898	5.776032
271	0	1	0.000000	5.458464	22.110911	15.414517
272	0	1	0.000000	7.232880	21.872961	2.364095
273	0	1	0.000000	18.784515	18.531982	15.375892
274	0	1	0.000000	10.584666	14.388982	21.636668
275	0	1	0.000000	18.824889	22.833265	2.379291
276	0	1	0.000000	18.421554	11.509379	0.081313
277	0	1	0.000000	20.063470	11.718086	5.737656
278	0	1	0.000000	3.361261	22.833656	13.505975
279	0	1	0.000000	9.333495	9.992684	15.386460
280	0	1	0.000000	5.664285	3.536040	18.581763
281	0	1	0.000000	18.757509	7.461610	6.872437
282	0	1	0.000000	0.294245	1.670276	4.009470
283	0	1	0.000000	15.372993	5.767491	10.988443
284	0	1	0.000000	18.160333	22.833838	16.911531
285	0	1	0.000000	13.803953	7.662802	19.884405
286	0	1	0.000000	8.881565	22.816123	8.183631
287	0	1	0.000000	5.854228	15.462984	0.753552
288	0	1	0.000000	17.002570	1.795567	22.160219
289	0	1	0.000000	1.714259	10.208797	1.146679
290	0	1	0.000000	10.953565	19.206479	21.506866
291	0	1	0.000000	2.482289	14.757084	12.868577
292	0	1	0.000000	5.390717	22.126754	22.833686
293	0	1	0.000000	8.311728	15.319140	20.527647
294	0	1	0.000000	14.323694	21.904445	15.870285
295	0	1	0.000000	15.349428	5.257005	6.963966
296	0	1	0.000000	9.869669	2.571413	15.181375
297	0	1	0.000000	4.847897	14.709659	16.270280
298	0	1	0.000000	3.169184	17.345914	14.127718
299	0	1	0.000000	8.373175	18.684007	4.114013
300	0	1	0.000000	2.836943	19.343578	1.581385
301	0	1	0.000000	16.792999	9.922599	18.458635
302	0	1	0.000000	19.432938	12.072201	18.859896
303	0	1	0.000000	5.949998	3.378281	10.489629
304	0	1	0.000000	6.253913	7.971833	10.801631
305	0	1	0.000000	19.192059	9.009687	4.931560
306	0	1	0.000000	18.410813	9.670236	10.552319
307	0	1	0.000000	0.894024	12.969628	11.170073
308	0	1	0.000000	19.996446	4.627831	16.830713
309	0	1	0.000000	-0.003197	17.683877	12.998321
310	0	1	0.000000	9.336271	18.363467	1.223461
311	0	1	0.000000	22.542332	18.452407	20.609957
312	0	1	0.000000	1.541985	13.811984	15.275000
313	0	1	0.000000	13.233260	11.205265	4.746390
314	0	1	0.000000	21.131812	13.614058	15.238778
315	0	1	0.000000	9.272194	12.929630	14.791588
316	0	1	0.000000	10.235055	8.374504	7.649658
317	0	1	0.000000	18.530398	17.873203	13.288766
318	0	1	0.000000	1.089278	12.996408	21.331050
319	0	1	0.000000	19.154149	14.678170	15.313726
320	0	1	0.000000	6.677577	3.012866	16.270052
321	0	1	0.000000	11.952385	20.966624	16.477833
322	0	1	0.000000	0.901232	0.000544	10.279447
323	0	1	0.000000	14.151466	11.607761	19.073891
324	0	1	0.000000	18.877888	11.399836	16.627455
325	0	1	0.000000	12.825965	8.700599	11.717081
326	0	1	0.000000	5.475406	12.795733	0.877645
327	0	1	0.000000	21.037626	2.404664	12.169342
328	0	1	0.000000	13.472965	11.380804	14.830003
329	0	1	0.000000	2.956640	10.165950	17.783498
330	0	1	0.000000	16.203833	22.833836	15.014233
331	0	1	0.000000	21.927262	10.104395	18.047257
332	0	1	0.000000	7.117415	19.719597	8.982567
333	0	1	0.000000	0.524575	21.940584	3.102927
334	0	1	0.000000	22.836100	17.683486	1.040408
335	0	1	0.000000	20.637950	7.182550	14.055402
336	0	1	0.000000	11.187442	19.459150	7.527326
337	0	1	0.000000	0.000012	10.350480	2.544447
338	0	1	0.000000	7.780387	19.904188	15.080816
339	0	1	0.000000	11.433185	20.155205	19.061253
340	0	1	0.000000	21.962849	19.677198	2.933341
341	0	1	0.000000	4.303479	0.071044	13.134476
342	0	1	0.000000	22.833575	17.001531	10.735347
343	0	1	0.000000	2.548545	19.298064	20.147399
344	0	1	0.000000	7.317642	22.371653	5.909479
345	0	1	0.000000	16.737718	19.051629	5.217330
346	0	1	0.000000	13.099343	4.763411	6.906577
347	0	1	0.000000	12.372770	8.273875	4.309794
348	0	1	0.000000	18.268936	13.510686	17.187481
349	0	1	0.000000	22.271292	20.026082	12.363272
350	0	1	0.000000	2.314942	15.844229	0.695247
351	0	1	0.000000	14.909728	14.196920	22.087122
352	0	1	0.000000	19.045118	2.213377	19.900740
353	0	1	0.000000	5.025074	19.608922	1.185820
354	0	1	0.000000	18.768812	18.462056	0.576701
355	0	1	0.000000	15.345377	8.556731	10.341389
356	0	1	0.000000	10.903467	5.928813	6.298966
357	0	1	0.000000	18.194475	11.945615	12.312813
358	0	1	0.000000	3.013009	21.264155	9.199596
359	0	1	0.000000	5.566818	17.756235	11.245629
360	0	1	0.000000	16.388088	19.175921	3.007815
361	0	1	0.000000	4.060364	3.420085	13.348999
362	0	1	0.000000	11.271981	4.343858	0.636362
363	0	1	0.000000	14.529061	9.105598	2.677398
364	0	1	0.000000	21.299427	1.317889	20.711077
365	0	1	0.000000	15.282720	14.949368	4.771918
366	0	1	0.000000	10.595899	20.636168	12.754922
367	0	1	0.000000	15.516774	0.304250	19.948413
368	0	1	0.000000	20.670837	18.454311	22.473502
369	0	1	0.000000	22.833904	1.539269	1.429280
370	0	1	0.000000	1.781326	16.620366	6.405923
371	0	1	0.000000	15.745527	19.832784	8.429046
372	0	1	0.000000	19.923471	7.819859	10.247855
373	0	1	0.000000	21.319767	10.824458	8.071564
374	0	1	0.000000	12.934510	19.526773	9.931038
375	0	1	0.000000	22.754371	10.032128	5.442530
376	0	1	0.000000	19.083416	16.775799	2.024425
377	0	1	0.000000	8.475642	15.095546	16.950891
378	0	1	0.000000	8.454053	12.879717	2.770243
379	0	1	0.000000	2.373527	0.727951	14.470457
380	0	1	0.000000	7.408511	14.475369	13.485647
381	0	1	0.000000	18.672425	10.565463	8.534000
382	0	1	0.000000	4.789406	13.465062	8.936879
383	0	1	0.000000	16.551469	14.560156	8.781527
384	0	1	0.000000	5.032278	7.819568	22.833323
385	0	1	0.000000	1.214114	11.718286	13.919174
386	0	1	0.000000	14.311778	10.705110	10.681506
387	0	1	0.000000	4.251521	1.319478	15.534768
388	0	1	0.000000	18.904204	19.243348	20.531088
389	0	1	0.000000	22.833499	22.526440	20.557053
390	0	1	0.000000	13.824193	5.487517	20.366245
391	0	1	0.000000	8.910757	9.911026	6.115277
392	0	1	0.000000	10.156942	5.734122	2.893134
393	0	1	0.000000	19.924847	0.539697	4.174595
394	0	1	0.000000	17.961156	20.228924	13.821334
395	0	1	0.000000	17.932898	10.002366	22.832680
396	0	1	0.000000	10.975237	16.709170	22.833927
397	0	1	0.000000	16.685453	6.075326	8.803788
398	0	1	0.000000	11.993946	12.183923	2.209926
399	0	1	0.000000	20.776873	17.010715	0.651756
400	0	1	0.000000	4.397476	18.606757	6.020785
401	0	1	0.000000	3.086077	17.056237	2.403833
402	0	1	0.000000	10.644368	10.731248	7.453501
403	0	1	0.000000	5.691678	10.286243	21.424583
404	0	1	0.000000	12.259755	15.990373	15.849541
405	0	1	0.000000	11.936137	5.963363	4.309710
406	0	1	0.000000	0.000723	12.584439	18.342317
407	0	1	0.000000	15.021225	3.874839	1.764233
408	0	1	0.000000	16.629086	15.691203	21.191869
409	0	1	0.000000	1.640615	3.369796	5.459411
410	0	1	0.000000	15.783282	14.715055	15.846047
411	0	1	0.000000	17.928741	0.881305	6.085132
412	0	1	0.000000	1.094203	12.102186	7.741429
413	0	1	0.000000	4.336953	6.522189	15.202935
414	0	1	0.000000	0.751730	0.645125	12.650716
415	0	1	0.000000	10.612214	2.563676	19.934272
416	0	1	0.000000	7.481170	20.078485	20.263618
417	0	1	0.000000	13.946681	13.586475	14.824462
418	0	1	0.000000	8.371862	1.220660	14.183800
419	0	1	0.000000	13.551162	9.267945	18.302029
420	0	1	0.000000	15.558298	13.939345	2.505503
421	0	1	0.000000	19.077321	6.153881	0.469485
422	0	1	0.000000	16.547514	18.582233	0.000638
423	0	1	0.000000	21.299422	15.850971	15.149565
424	0	1	0.000000	15.626875	20.560256	14.539313
425	0	1	0.000000	16.434574	12.588224	18.199286
426	0	1	0.000000	8.489935	6.973049	16.486495
427	0	1	0.000000	7.449388	4.782125	12.654035
428	0	1	0.000000	1.324098	15.206170	4.033671
429	0	1	0.000000	16.935406	6.857890	20.433635
430	0	1	0.000000	16.373786	17.915548	7.483543
431	0	1	0.000000	6.722477	11.861896	15.849542
432	0	1	0.000000	21.914959	6.298461	16.801256
433	0	1	0.000000	11.150780	9.510505	10.484140
434	0	1	0.000000	19.410509	3.042831	22.493695
435	0	1	0.000000	10.169715	22.298500	22.833927
436	0	1	0.000000	9.557448	13.974897	19.247200
437	0	1	0.000000	17.910133	21.781831	6.038485
438	0	1	0.000000	7.712927	6.077159	14.412891
439	0	1	0.000000	13.895778	22.833886	18.862910
440	0	1	0.000000	15.749745	13.531081	10.790251
441	0	1	0.000000	9.859398	2.688984	0.970794
442	0	1	0.000000	12.659901	6.379580	22.833759
443	0	1	0.000000	4.683781	1.844247	6.283892
444	0	1	0.000000	9.631445	5.157740	8.518130
445	0	1	0.000000	9.607633	4.945493	18.178924
446	0	1	0.000000	16.353994	8.469674	12.784323
447	0	1	0.000000	16.445844	16.224548	1.486408
448	0	1	0.000000	13.417029	1.054730	0.191783
449	0	1	0.000000	5.673279	5.765254	0.699927
450	0	1	0.000000	22.833711	2.300335	15.616980
451	0	1	0.000000	11.345354	3.793727	2.835970
452	0	1	0.000000	17.048226	8.919842	2.994373
453	0	1	0.000000	1.141387	16.324429	14.460430
454	0	1	0.000000	10.661517	21.150996	8.956038
455	0	1	0.000000	6.976523	5.962098	4.618157
456	0	1	0.000000	9.247737	10.774396	2.456043
457	0	1	0.000000	3.571688	0.000507	18.604944
458	0	1	0.000000	22.835287	14.110780	5.422601
459	0	1	0.000000	19.306513	9.089716	15.658507
460	0	1	0.000000	8.186058	17.440577	11.448728
461	0	1	0.000000	8.395682	6.492773	0.000570
462	0	1	0.000000	4.960982	10.291944	4.166918
463	0	1	0.000000	12.515730	1.707940	12.351281
464	0	1	0.000000	2.701690	10.946016	21.116425
465	0	1	0.000000	20.991186	20.311295	0.033637
466	0	1	0.000000	4.986371	14.037184	22.066058
467	0	1	0.000000	0.571549	21.038206	10.408383
468	0	1	0.000000	20.136333	9.123103	1.589987
469	0	1	0.000000	19.530066	1.258660	17.872069
470	0	1	0.000000	18.238430	14.195652	2.290553
471	0	1	0.000000	17.383166	1.072863	3.538192
472	0	1	0.000000	18.967728	19.987114	11.479143
473	0	1	0.000000	21.356797	11.752476	0.072597
474	0	1	0.000000	5.063946	13.943163	11.361850
475	0	1	0.000000	18.490504	0.041030	13.262354
476	0	1	0.000000	0.607074	18.062176	0.359709
477	0	1	0.000000	11.670675	11.746312	13.377828
478	0	1	0.000000	2.526061	5.163906	7.391625
479	0	1	0.000000	4.649624	13.065361	19.366347
480	0	1	0.000000	13.785639	0.000065	9.740096
481	0	1	0.000000	10.380944	20.388796	5.247746
482	0	1	0.000000	12.344030	10.235588	16.694958
483	0	1	0.000000	1.586786	17.263463	11.537942
484	0	1	0.000000	15.220051	15.590794	6.882185
485	0	1	0.000000	19.322902	14.184565	6.907043
486	0	1	0.000000	22.417270	0.858577	18.675445
487	0	1	0.000000	8.526180	0.781071	0.000243
488	0	1	0.000000	11.822183	0.432252	5.525121
489	0	1	0.000000	7.676577	8.921832	2.370319
490	0	1	0.000000	11.733710	4.270786	20.806859
491	0	1	0.000000	7.879345	0.332058	4.813223
492	0	1	0.000000	3.190291	18.111977	22.833933
493	0	1	0.000000	16.952818	22.684175	8.708754
494	0	1	0.000000	9.598866	8.316804	13.550706
495	0	1	0.000000	21.809274	12.552870	19.621285
496	0	1	0.000000	21.161857	16.918105	9.298670
497	0	1	0.000000	20.079113	18.090415	10.847281
498	0	1	0.000000	19.484277	15.969788	5.172376
499	0	1	0.000000	6.174090	17.836544	3.855016
500	0	1	0.000000	13.587809	17.770203	14.900875
501	0	1	0.000000	8.654972	9.432429	18.822415
502	0	1	0.000000	19.773763	20.591468	22.539083
503	0	1	0.000000	2.300665	1.935799	1.455025
504	0	1	0.000000	2.724076	6.994397	22.577631
505	0	1	0.000000	17.897366	18.749958	22.833771
506	0	1	0.000000	19.071683	10.026344	13.135141
507	0	1	0.000000	16.093989	3.429131	10.480044
508	0	1	0.000000	19.240058	5.298542	6.827232
509	0	1	0.000000	22.827897	5.520826	14.592985
510	0	1	0.000000	13.016280	14.049030	7.548121
511	0	1	0.000000	15.861042	0.127694	14.346543
512	0	1	0.000000	6.593672	0.000070	15.805734
