LAMMPS data file via write_data, version 4 Jan 2019, timestep = 3000000

512 atoms
1 atom types

8.4119486900606333e-02 2.4750880513102963e+01 xlo xhi
8.4119486900606333e-02 2.4750880513102963e+01 ylo yhi
8.4119486900606333e-02 2.4750880513102963e+01 zlo zhi

Masses

1 18.0153

Atoms # atomic

311 1 1.9872738106297675e+01 7.5760055173902110e+00 8.1193738289652906e-01 12 -49 20
87 1 1.9589164847062634e+01 9.5686519237206653e+00 4.2258191696792773e+00 -12 35 91
242 1 2.4574288428054182e+01 5.9839502262867459e+00 6.5201925682013240e-01 4 13 -43
396 1 1.8892707557680623e+01 9.7918772304471116e+00 6.9167405093996104e+00 -4 -3 30
73 1 3.1649586177926490e+00 9.0246542172265425e+00 1.5039377434418910e+00 -53 4 21
157 1 1.0544643130937652e+01 1.0283686395714218e+01 3.6010307154106300e+00 -8 -24 65
400 1 1.3024349134210407e+01 1.1183446109472754e+01 6.7845391748907535e-01 53 19 -14
174 1 4.2263052843170295e+00 1.1610201313106636e+01 6.6450732506920716e+00 7 100 -26
147 1 2.0058665024844004e+01 2.8769751521732885e+00 7.4077867190465074e+00 -29 23 90
49 1 5.4620952910990281e+00 8.1231007963890889e+00 2.3649721167689779e+00 -2 30 -20
375 1 2.2164915359470918e+01 1.9780469026258936e+00 5.2682651386702064e+00 3 46 -116
155 1 1.0143769387250366e+01 1.1295904102443743e+01 3.3710860803671416e-01 -46 25 26
305 1 2.2989782062409638e+01 5.4974829032254533e+00 3.1436804363846265e+00 18 86 38
204 1 1.0155693984252254e+01 7.6629894848557045e+00 4.6111303766014071e+00 32 -20 -189
22 1 2.1297668734017300e+01 7.7168988782379158e+00 3.0655449690903271e+00 -8 -68 77
263 1 1.2899032029529277e+01 9.8603071282177641e+00 6.6286817562764782e+00 31 142 3
229 1 2.3770603424139402e+01 9.5568727996866851e+00 2.1839352810934707e+00 51 29 22
413 1 1.0953512827659457e+01 6.8348952999228230e+00 7.0826293378699505e+00 -23 12 -20
279 1 2.1389112057885349e+01 1.1452495086329391e+01 1.6730556145880131e+00 -32 157 51
409 1 1.8200182996223560e+01 1.7777996323352097e+00 3.4947124492995441e+00 -59 93 81
312 1 9.3219953142053082e+00 1.7196580677950348e+00 7.1647690357680727e-01 -3 20 17
129 1 1.4530643320700813e+01 9.3995653905263818e+00 4.1965378663507540e+00 -52 -32 -79
228 1 2.3457799989794900e+01 1.3273831684051304e-01 6.7812723861249022e+00 -39 23 14
324 1 2.7815026833350176e-01 3.0613215829199909e+00 4.1575079489573881e+00 3 -50 77
118 1 1.5162199191925259e+01 4.4498904984671084e-01 2.4649677319659808e+00 -31 139 -87
286 1 1.1391569593063869e+01 2.1564251881205370e+00 2.2641427627633557e+00 57 -22 18
300 1 2.3433253764286874e+01 8.0344829407335894e+00 7.5887265216245705e+00 -82 73 19
76 1 7.4181693568813287e+00 9.9594337587324215e+00 3.5320211692822707e+00 20 15 15
309 1 5.8044390152668326e+00 1.1983638929880899e+01 4.8221646631264887e+00 58 62 -46
357 1 1.1311014532501238e+01 1.1806369577754067e+01 5.8096309789435843e+00 13 -16 0
58 1 1.6900893357809558e+01 5.7905259374886056e+00 7.2624710438734104e+00 5 -5 7
495 1 7.0453534387067549e+00 3.0628483766508516e+00 6.7558194266534741e+00 -30 3 -60
283 1 1.5155054507753534e+00 9.0521842851883942e+00 3.8133628645797115e+00 83 -36 61
301 1 1.6633473161577361e+00 1.0603123865209203e+00 5.6407063770024886e+00 114 35 31
172 1 1.6563552582088924e+01 2.9779604887247526e+00 6.2835509528587270e+00 -32 -101 35
181 1 1.8003999726107423e+01 1.1830229818857136e+01 6.5965470368182211e-01 78 69 -44
385 1 1.6210973964654471e+01 4.0681993720755631e+00 1.5262328899776894e+00 49 32 47
11 1 4.7782990597908706e+00 6.1826018416538338e+00 6.2302238381707831e+00 20 70 -46
152 1 9.9894834499104181e+00 4.9537236503229414e+00 2.7414334142089318e+00 -57 -147 -17
505 1 1.6028985860531002e+01 7.0149090483454941e+00 4.7954602919346234e+00 -5 17 -57
211 1 1.7687019541017399e+01 4.5454430655206499e+00 3.8521946666699796e+00 -42 13 -23
95 1 2.4191911311867479e+01 6.9618589973228104e+00 5.1069032872713489e+00 64 139 -11
42 1 1.7331658522840456e+01 7.2513665899877457e+00 1.4998245398784522e+00 3 67 -68
461 1 1.4373196195659790e+00 1.1391380830105096e+01 6.1825316647312256e+00 15 45 -5
346 1 1.3557991151407341e+01 5.2013862251752929e+00 5.3025796398206442e+00 46 27 -118
397 1 1.3733666605731464e+01 5.6789339755980617e+00 3.5159193857539711e-01 -58 48 -43
479 1 3.5529048405655211e-01 1.0190708746702718e+01 8.0408619718706511e+00 -29 -18 -48
32 1 1.0379668128211391e+01 7.2253320271681254e-01 4.6780561583337343e+00 -53 112 -42
328 1 1.1896450597321554e+01 3.1193944427588964e+00 6.2150479894154209e+00 74 80 -16
148 1 5.9236531299414015e+00 1.3711489188129138e+00 3.4922522604507531e+00 -52 48 65
267 1 5.7644084824833230e+00 5.4558273118412774e+00 3.1426859425113003e+00 -93 65 -60
93 1 7.7679251725312826e+00 4.9500977728612749e-01 5.3443185150242947e+00 -32 -9 12
168 1 3.0978380632562543e+00 8.3459637208168225e+00 6.0168033789370181e+00 101 -43 -55
146 1 1.5187419162314729e+01 1.1994858511377636e+01 4.0385593165375528e+00 -17 -11 11
142 1 8.4280236731300473e+00 9.0549072485892008e+00 1.2070791949367652e+00 24 24 56
258 1 1.4245577637439336e+01 3.0112538069972059e+00 3.4885316452248101e+00 121 -53 64
372 1 1.2619447016457402e+01 6.1362809606562809e+00 2.7357829868452548e+00 21 3 14
377 1 2.2320932607258875e+01 2.7973322626090718e+00 1.2729854158440561e+00 28 12 -114
94 1 1.8749847158300104e+00 6.0297193491737824e+00 2.8498664000631209e+00 -61 40 41
233 1 1.9505966807299053e+01 6.2732285981352511e+00 7.1008923661251817e+00 -1 -36 -35
149 1 1.2556702488165186e+01 8.9689302074818631e+00 2.1665905891069688e+00 -52 58 6
171 1 1.4017608779918627e+01 7.3780766208858779e+00 7.5269107291276640e+00 -32 42 14
402 1 3.4867621183269475e+00 4.1778961676922846e+00 3.7948220256323175e+00 36 46 -28
387 1 1.4111600475276687e+01 1.1045240200522002e+00 6.1278712611270993e+00 74 -27 140
128 1 2.4445997977160211e+01 1.1656266924801797e+00 1.6641460160677219e+00 23 -3 -21
340 1 1.4539378095132445e+00 5.2131280844496510e+00 6.2562050580694963e+00 63 52 21
423 1 4.3436184629186645e+00 1.1899764084371098e+01 2.2050363700866953e+00 -24 0 51
335 1 1.7136369990657975e+01 9.6665203248803202e+00 2.6115495366458101e+00 13 -22 87
9 1 7.1493142000634329e+00 3.0956342974600486e+00 1.8961246178856010e+00 -32 27 8
364 1 4.1543946955220052e+00 2.6584498621624939e+00 6.0212630942215899e+00 110 18 -3
223 1 9.3167285536588142e+00 4.2329077374348545e+00 5.5246249112866517e+00 101 38 15
360 1 2.0400768214488878e+01 4.8737531175655233e+00 4.6127294112090276e+00 -92 -47 73
291 1 1.7209159889554030e+01 1.1807606542819052e+01 7.4413846553369583e+00 29 98 74
72 1 3.0435507443906635e+00 2.1905373147065692e+00 1.7999736427358481e+00 18 61 48
302 1 7.4214064740545247e+00 7.8059356324532381e+00 5.2989635123599221e+00 39 -77 -19
198 1 1.7584026084777705e+01 4.7536469098458456e-01 6.2106569585713167e+00 -30 46 2
37 1 2.1063820250465270e+01 1.0426452351121926e+00 3.0707649308121763e+00 53 23 -46
121 1 9.4063846334057839e+00 1.1435364237205535e+01 7.5514053650209627e+00 3 4 8
303 1 6.7517443134899695e+00 1.1516700538045324e+01 2.8471326774409567e-01 33 11 198
317 1 7.1384668557605622e+00 9.4236963290479370e+00 7.1369774901768377e+00 109 -24 -31
485 1 2.4738581760223692e+01 1.2368812161546851e+01 1.3867881351958531e+00 -2 5 66
194 1 2.2660594023872335e+01 1.1435824372638555e+01 5.9833175474942859e+00 40 111 10
257 1 1.7512753544389426e+01 8.2676025751146920e+00 9.2651573747871829e+00 -17 13 50
441 1 2.2138697004647923e+01 3.8623624902081283e-01 1.4128859528255674e+01 0 -66 -24
391 1 3.0194212259581055e-01 1.1717796086787494e+01 1.4255994706154402e+01 -78 -23 -3
108 1 8.7877682979557843e+00 1.1383448229940651e+01 1.6458219829434434e+01 42 -29 30
98 1 2.2732562406550528e+01 2.6247281905428821e+00 1.2557202239602974e+01 65 79 9
382 1 7.8381819488713464e+00 3.3209196268919770e+00 9.8725768397544247e+00 52 -11 55
332 1 5.6713552662459161e+00 5.8135455186100700e+00 1.2482563659345146e+01 7 -35 -107
248 1 2.0437078460687182e+01 6.1373181197575821e+00 9.6119163426405461e+00 -41 32 -2
434 1 1.2092580465648922e+01 4.8605842916020379e+00 1.0331083659537084e+01 61 -34 -75
112 1 1.1923790883874938e+01 1.0275416699658683e+01 1.5398718202119738e+01 24 93 -42
43 1 1.4506271055920548e+01 1.1417776367240803e+01 8.5287754179576076e+00 -5 -8 14
71 1 4.2024814128392753e+00 7.9145010978526997e+00 1.3785309429952902e+01 66 -69 -63
475 1 1.5358649091559391e+01 1.1382733590026238e+01 1.2805295785287631e+01 17 -10 -4
341 1 1.1038698727528962e+01 2.6866675307132586e+00 1.5954479408919944e+01 44 -35 67
154 1 7.0411133068702130e+00 9.6162404061072895e+00 1.5657324883998776e+01 107 -23 3
260 1 6.5732775134286685e+00 8.5619432248012828e+00 1.0844696164302068e+01 -30 1 63
67 1 3.2736079104266613e-01 1.0238972906974402e+01 1.1987609784902460e+01 -29 -84 -31
176 1 2.4065254463137499e+01 6.3303642467570382e+00 9.4156883768458535e+00 -96 -92 -35
2 1 1.6264989103714285e+01 3.7759437858444285e+00 1.6270930738580695e+01 -47 7 -19
77 1 8.0785715990231921e+00 4.2786869313308360e+00 1.2518206249328962e+01 62 -28 12
206 1 1.4654074343187661e+01 4.1216875337229819e+00 1.3649577857832959e+01 19 -83 36
130 1 1.2192425353841031e+01 4.7903893515636451e+00 1.4544648339994776e+01 -25 -30 14
158 1 1.2890656979030059e+01 7.4380787084179989e+00 1.0293196223449701e+01 -60 54 -83
169 1 2.0772508387099371e+01 3.5079193974368503e+00 1.0690348345677251e+01 -5 44 14
490 1 1.5493654565983986e+01 1.8906817220614145e+00 1.2401317335008422e+01 5 -88 -16
333 1 6.4262223598316419e+00 9.8772993496368389e-01 9.5959654672470212e+00 27 36 31
503 1 1.9756154391831423e+01 1.1568450380900492e+01 1.3373950580839061e+01 -17 6 34
319 1 1.7316470476551721e+01 7.0510421977829880e+00 1.3818738863925947e+01 -34 -9 52
160 1 1.1578226424631298e+01 1.2643335960905415e+00 9.5284490603367757e+00 -16 47 42
435 1 4.4213147276077898e+00 3.9531977638048001e+00 1.4083093337905403e+01 -68 -17 -5
97 1 7.8244179622211334e+00 7.5230676151946065e+00 8.7527149278747771e+00 31 62 -1
470 1 1.0609448898210122e+01 3.6075921826482720e+00 8.7138329014288978e+00 14 -31 -132
249 1 2.0950837811910752e+01 6.4275417054273323e+00 1.4435055586096432e+01 -84 -51 -21
177 1 2.0361472986957750e+01 8.5533700459192232e+00 1.0524036667261354e+01 -31 -37 43
483 1 2.3433548450068229e+00 1.0558390669504615e+01 1.0214848956039523e+01 39 62 17
453 1 1.8277997488802463e+01 9.4676193339361561e+00 1.2556518624036107e+01 74 -3 0
224 1 1.5246979047478419e+01 1.8796557641329731e-01 1.5433083089223693e+01 54 -95 8
109 1 1.4971528644531420e+01 7.9735967167192330e+00 1.5533556325677603e+01 -103 -43 -52
347 1 1.8613165728740512e+01 4.7274277246915473e+00 1.4814215969686515e+01 -125 6 0
504 1 4.4392841464273474e+00 5.7584307398155410e+00 1.0272645661619997e+01 -31 -20 39
365 1 1.7498801428989601e+01 2.8235852024347183e+00 8.9893508419176325e+00 -7 73 -42
215 1 1.2337136975511651e+01 1.1349015659076747e+01 1.2565213294530729e+01 3 -139 -48
51 1 3.6129896148382040e-01 1.4370443728901166e+00 1.0510428311120062e+01 33 -6 -49
361 1 1.6174153124778792e+00 8.0977688992570354e+00 1.3327637254393402e+01 -62 115 -5
6 1 7.7176147875057612e+00 9.7671129940858776e+00 1.3054125452345954e+01 82 18 -32
469 1 2.1987780799315495e+01 8.2910244152275876e+00 1.2750825425617057e+01 38 6 21
431 1 1.0771800625785302e+01 1.7912678592948578e-01 1.2174771275622016e+01 -58 -35 -30
202 1 1.5107795066630157e+01 4.7606066262823106e+00 9.1540275958408710e+00 32 91 -22
91 1 2.2644896809348943e+01 1.1398608632246511e+01 1.0987537177375795e+01 -26 -1 27
293 1 6.0206966127722019e+00 3.4912067569657892e+00 1.6320489304014878e+01 4 119 49
390 1 8.7410266280243967e+00 7.1703577252689596e+00 1.6024517037168181e+01 -11 -35 -21
455 1 1.8288392367002842e+01 3.2110861228339536e+00 1.2369762123622325e+01 55 94 18
398 1 1.2078576120976207e+01 7.2666933503714874e+00 1.5698053340307929e+01 -53 -28 16
156 1 1.7895093547598520e+01 5.4295080583184108e+00 1.0793126907261101e+01 38 32 -22
10 1 1.5072302226472791e+01 9.3125267120456403e+00 1.0076304111372185e+01 -76 65 -25
88 1 1.4083233664353565e+00 9.6472945230698741e+00 1.5712038796394735e+01 -25 22 55
245 1 2.1605179118652313e+00 7.3608141650352055e+00 8.4819446685323694e+00 -14 3 85
113 1 8.4912924432831431e+00 1.3398182044655478e+00 1.3370805832042146e+01 -58 16 86
408 1 1.9295387197105072e+01 1.3018228421238875e+00 1.4182073255686454e+01 -144 26 63
386 1 3.2875183647992567e-01 4.1006549873771601e+00 1.2673869849816199e+01 80 -58 19
321 1 1.9235508265747285e+01 6.9889347742076835e-01 1.0458925636837877e+01 28 30 -69
478 1 1.5212685921565777e+01 6.2435137676706898e+00 1.2227496478452872e+01 25 -4 29
244 1 4.2283017371329663e+00 2.7461062032785744e-01 1.5333935672454615e+01 -34 79 4
19 1 2.5410394796605318e+00 3.6117415802422141e+00 1.0323412060540040e+01 18 52 75
379 1 8.4452656961334966e+00 4.3307075888150761e+00 1.5742032422208720e+01 145 14 72
102 1 2.2069039601338211e+01 3.9030266822259021e+00 1.5090762476313284e+01 28 -19 30
354 1 4.1955201024733677e+00 1.1317348913382924e+01 1.4327546465959882e+01 12 50 20
151 1 1.0524910076814480e+01 5.3095076547553175e+00 1.2718449030847157e+01 -32 -37 14
345 1 5.2827023603683436e+00 1.0819364435137693e+01 8.9098767028467467e+00 92 145 -21
482 1 2.2114208682132961e+01 1.0614670924028454e+01 1.4261424525766195e+01 15 66 33
497 1 1.0999012250999433e+01 9.2447494100473815e+00 1.1277364378884990e+01 0 30 28
381 1 3.7141567059600322e+00 8.3998432766030078e+00 1.0750880006552462e+01 36 -111 36
269 1 3.7175715546882876e-01 4.0317431462877131e+00 8.5213000734829425e+00 30 -39 -1
326 1 2.3268496109611378e+00 5.0785090581444106e+00 1.4913020128846924e+01 33 125 -6
506 1 2.4020441286982319e+01 6.7129799781039461e+00 1.2111597765236750e+01 -12 -30 -11
363 1 1.0408014858668245e+01 9.0932295399419658e+00 8.5462875348016247e+00 -23 -40 24
489 1 9.8388255135399714e+00 7.8958057613787433e+00 1.3144196862516692e+01 73 191 -47
137 1 1.4248443249168290e+01 1.8028715102571031e+00 9.7636872891174598e+00 -2 -34 53
491 1 3.8148668269039425e+00 1.2463206905964610e+00 8.6392806328112357e+00 -20 -25 -17
218 1 3.8741170940165852e+00 1.8790172050770895e+00 1.3015561290950608e+01 -51 -16 -22
355 1 1.4258511503431255e+00 2.3629228611372399e-01 1.2457180677133668e+01 -25 -6 69
310 1 6.2049352533798867e+00 4.9622109165900907e-01 1.2213166782178032e+01 -18 -12 7
298 1 6.0755356492884207e+00 5.4356505521450691e+00 8.5630786630692022e+00 5 36 -4
79 1 2.2774179042769674e+01 2.4847631033406996e+00 8.4046950896953092e+00 -4 -98 107
96 1 2.1297421674204294e+01 1.0252826738860657e+01 8.3405949667925139e+00 238 59 63
308 1 2.2216421076773088e+01 8.4494345426492146e-02 1.0417642809629188e+01 50 103 55
200 1 4.3590402199044131e+00 8.8085492782095578e+00 1.6516471206949433e+01 70 89 -9
407 1 5.8798424505559694e+00 1.0881434982215137e+00 2.3277337169929162e+01 22 4 60
295 1 2.3074137426561514e+01 4.3581542716497914e+00 1.9292876040606977e+01 -45 -7 -6
439 1 1.4894614923721643e+00 4.7605204279650879e+00 2.0257475876705826e+01 25 -49 -69
477 1 1.0082912747836872e+01 1.2037118521020551e+01 2.0049555420097612e+01 36 -2 33
494 1 1.6200330942484833e+01 1.0898404155725295e+01 2.3630753689047445e+01 6 56 -74
124 1 1.7308108962782697e+01 1.0546157303247901e+00 1.9963677665041004e+01 -49 153 -29
251 1 7.3361831415960275e+00 8.7377969379793097e+00 1.8923258404833746e+01 -24 29 -59
38 1 4.9167805682193277e+00 9.9325230726572116e+00 2.2329311155208508e+01 -17 53 -28
150 1 1.6845607819674363e+01 6.6137075158887804e+00 2.3107918821554385e+01 74 -32 72
44 1 3.9341833693043031e+00 7.4985322283409515e+00 2.0683146160116387e+01 -27 -34 101
55 1 3.4914648046560894e+00 2.5669954449487737e+00 2.0131543058499922e+01 27 71 -37
380 1 1.3424546297189677e+01 5.3022295845764269e+00 2.1759719181004023e+01 -9 79 70
272 1 2.7527676375687640e+00 1.4440219336658819e+00 1.7439016578990646e+01 -22 -4 105
192 1 2.1012133383958749e+00 9.4209404025679451e+00 2.3697121196242065e+01 -90 69 -48
254 1 1.4558926796231034e+01 8.3905970086889710e+00 2.1535073927305127e+01 39 88 37
350 1 1.0806880353128014e+01 3.5855705045759119e+00 1.8917687985221036e+01 19 -10 47
61 1 2.4031060624649996e+01 8.7529096972141431e+00 2.4383816006848612e+01 87 -59 107
131 1 2.0960929893264542e+01 4.4475999950255076e+00 2.1093291845257234e+01 20 -35 -18
415 1 8.6788858974220897e+00 5.2347251201110021e+00 1.8846301750780562e+01 -52 -50 15
209 1 1.4768100551940996e+01 8.6739770379892693e+00 1.8744292281274575e+01 1 4 -45
463 1 9.8637306137763776e+00 3.3529289954418542e+00 2.3401521521628744e+01 -48 27 -42
499 1 1.9187311520092007e+00 1.2391969246014796e+01 2.3798871317632965e+01 26 -26 -63
59 1 2.2189606298917880e+01 9.9586234988698568e+00 2.2761586066929553e+01 43 -92 64
100 1 1.7919667104805420e+01 1.0954504043481115e+00 1.6657041450268274e+01 55 -124 -13
394 1 2.0921839355876806e+01 2.7066909649972204e+00 2.3549303571078859e+01 -116 -4 -25
406 1 2.3162405113857496e+01 8.6987253322791673e+00 2.0440680725581089e+01 38 146 8
107 1 8.2608464375935675e+00 2.4444291269803959e+00 2.0857906930889101e+01 -31 48 -140
216 1 1.6450431268391007e+01 5.1225641426801483e+00 2.0843849362540183e+01 -35 3 159
473 1 1.5408213375526207e+01 2.8277249728697007e+00 2.2583310257424486e+01 -40 -42 67
183 1 2.2048089227817805e+01 2.1747327087264798e+00 1.8511552439784545e+01 36 90 3
188 1 7.0681995009530107e-01 7.3833436596658952e+00 1.9207934905758734e+01 4 -6 52
265 1 1.9457624341980058e+01 9.7359672230657122e+00 2.1043166827585381e+01 -76 -54 67
464 1 1.3834765223959314e+01 1.1577420974003136e+01 1.6668513529453861e+01 26 20 -20
8 1 1.7723193019388532e+01 3.1026541661176785e+00 2.4421013141459966e+01 -28 29 -40
368 1 1.0928435013452436e+01 6.4799967303526369e+00 2.0326142602210098e+01 49 -40 38
459 1 1.9102547299721344e+01 5.1709371150359473e+00 1.8201738943512211e+01 56 -27 43
25 1 1.2500349625181917e+01 1.0285666262076463e+01 2.2781376741322369e+01 53 -88 -53
234 1 1.1328331377736749e+01 7.5942513316760980e+00 2.4179929406767542e+01 68 -22 22
240 1 1.6056239458174637e+01 5.8084397973113049e+00 1.8265447262218771e+01 -214 140 67
343 1 6.9208449381051986e+00 9.1199273705436179e-01 1.7317640826445455e+01 -74 10 145
304 1 1.4946677341855489e+01 8.5645322840550548e+00 2.4530929170633982e+01 -28 -51 106
493 1 5.7610642114222914e+00 1.0954251699022356e+01 1.9764789187629027e+01 -48 86 44
484 1 1.9076012838827140e+01 5.3929195591778196e+00 2.3477965602820561e+01 -50 -21 85
256 1 1.8385153891836694e+01 1.1007313520721876e+01 1.7637984029547837e+01 30 16 -27
282 1 1.3394847797091581e+01 4.6753907732040174e+00 1.7603866071275867e+01 27 22 82
69 1 1.8869861217490246e+01 9.9161710270843950e-01 2.3635408993918148e+01 -31 1 4
486 1 6.6050382254061484e+00 4.5147525478833765e+00 2.2130710855676988e+01 43 15 -7
280 1 2.2578196083333701e+01 1.1469699068159665e+01 1.9032848196136420e+01 10 -40 160
331 1 2.3504983945300570e+00 6.6551103984866327e+00 2.2425274187150166e+01 41 16 -10
367 1 2.0583515512649036e+01 7.8753992840867886e+00 1.7373052001520641e+01 12 -3 65
348 1 1.1489378501140710e+00 3.2529379805238579e+00 2.4528096499463736e+01 -18 -20 18
498 1 3.1945205558782499e+00 1.0571449509905939e+01 1.8649397014300156e+01 38 18 10
480 1 1.6468195821258969e+00 4.1237842250887127e+00 1.7258480808108075e+01 12 -52 72
110 1 2.3879102573559649e+01 5.9503789078942715e+00 2.2325270248583976e+01 29 -32 -22
81 1 1.1816932617624392e+01 2.1971161970517947e+00 2.1219153708096172e+01 44 100 -30
165 1 1.6873868259516132e+00 1.2146425207168092e+00 2.1953187818889397e+01 84 -9 99
212 1 1.5997463888256874e+01 1.1186248391081570e+01 1.8833320717032514e+01 -9 -49 -33
217 1 6.5147206817890835e+00 6.2535289803311924e+00 2.0303984625055882e+01 95 -51 81
219 1 1.4062502967411296e+01 1.7018632947279262e+00 1.7428074365436913e+01 -20 -21 -93
359 1 2.3774071419896352e+01 5.0787262227947574e+00 1.6861436594604307e+01 -46 49 7
231 1 2.4603571264046629e+01 1.2325197012709610e+01 2.0827965322842580e+01 -49 10 30
349 1 9.9657074346631003e+00 9.2040595881642329e+00 2.1209334489372246e+01 -3 19 52
190 1 2.4438493957762724e+01 2.8927323746173443e+00 2.2036036681152524e+01 107 79 23
138 1 1.4584614122223639e+01 1.2278089707297850e+00 2.0094918117219166e+01 179 38 21
12 1 9.4296788654598824e+00 1.1692089839684903e+00 1.8542936973430322e+01 53 -49 58
99 1 1.0223046102030004e+01 9.6322032353653135e+00 1.8490400910946818e+01 2 -17 43
250 1 4.9173426025370857e+00 4.8190914739546553e+00 1.8423100619829626e+01 0 17 169
178 1 2.0888248430794803e+01 7.3331123263028930e+00 2.0221687343972448e+01 69 28 -52
180 1 1.2235984715798361e+01 7.5177495745786631e+00 1.8316375594940496e+01 5 289 -25
47 1 2.2307312507993032e+01 6.1066887214180365e-01 2.2401090155523327e+01 18 62 -100
259 1 2.4363247538463852e+01 7.9131453921199739e+00 1.6806963809421710e+01 -6 45 37
294 1 2.0124149761061162e+01 1.2167580908705736e+01 1.9860032804456218e+01 29 23 -76
13 1 1.6911558937241871e+01 9.9296699791902956e+00 2.1357364219499097e+01 138 -14 69
264 1 1.8439950825949367e+01 3.4059470425433171e+00 2.0778218616589093e+01 -107 33 25
24 1 1.7817685535287247e+01 8.4653517851954785e+00 1.7007834960374424e+01 24 -47 77
191 1 1.9789499673185468e+01 9.7690623937054344e+00 2.3892102393893751e+01 45 -15 -20
213 1 6.0052823913799740e+00 6.8835360572136828e-01 2.0161494908411122e+01 -39 -7 14
296 1 1.5019216782083085e+00 1.0016758140660826e+01 2.0772712711787769e+01 -37 -99 65
306 1 1.3390222799470983e+01 2.7404175794625290e+00 2.4421563962781718e+01 -8 59 -59
235 1 3.2047883834585651e+00 6.7788146645987961e+00 1.7684073199228223e+01 30 -57 161
117 1 7.3979719876743326e+00 8.5526445904679953e+00 2.2352002727909159e+01 61 40 86
281 1 6.4014465663475031e+00 6.5827366400980640e+00 2.4365713660520534e+01 41 -41 108
457 1 9.1853011383891001e+00 1.2356038460014682e+01 2.2791663498465532e+01 -16 -32 70
447 1 5.1840400774690059e+00 3.2810267561975923e+00 2.4649310569996651e+01 -5 -107 27
201 1 9.1595421053568327e+00 5.9530454073103911e+00 2.4580461645913857e+01 -90 -48 36
395 1 3.3195196114641283e+00 5.1958277971901294e+00 2.4730514324371505e+01 -31 45 -55
89 1 2.2413716193778271e+01 9.8327467778185405e+00 1.6825057743766415e+01 2 9 -183
275 1 2.3201172962040431e+01 3.1559119937412905e-01 1.6920672910330282e+01 20 -15 28
422 1 2.0201489686110591e+01 2.9436011618110673e+00 1.6758418671544234e+01 -8 71 72
28 1 9.5621094836728950e+00 1.8754772070847089e+01 4.0754970465082536e+00 22 36 22
83 1 2.4558836152534509e+00 1.6731297249118128e+01 6.2066366341001853e+00 31 -2 15
30 1 1.6559782619833832e+01 2.1804258216326730e+01 2.5583641418095775e+00 -88 8 -5
446 1 1.9761258413176300e+01 1.8254695915807297e+01 2.7449351565249489e+00 31 31 -17
60 1 5.5988990118928017e+00 2.2219864214025321e+01 6.5842313604603904e+00 -72 -24 64
378 1 1.1319828428052366e+01 1.3534643543221859e+01 2.8633314817084905e+00 4 -14 -76
344 1 1.4162746932105282e+01 2.0051513053669531e+01 3.6608302929336132e+00 24 -48 1
185 1 2.3216420871133154e+00 2.2564094131215064e+01 2.3142458296752073e+00 3 16 -5
420 1 1.5555610302247080e+01 1.6602657212838160e+01 2.8498952442030672e+00 19 -30 113
492 1 2.3668925502943956e+01 1.9586377273582301e+01 3.0217786848807564e+00 -2 -18 59
369 1 1.7839793889508606e+01 1.2872604746670714e+01 4.7788244590417994e+00 -1 62 3
159 1 1.8314982169831239e+01 1.6042229264582289e+01 6.1021885907022622e+00 -54 54 104
433 1 7.8290941079458971e+00 1.3558884257201342e+01 5.8754691356869397e+00 20 -47 -39
342 1 5.2119148395389461e+00 2.1606292159315345e+01 3.3305337979911753e+00 28 -11 10
471 1 2.0544255221516934e+01 1.5855338806511922e+01 1.8350461420693844e+00 -83 -22 20
373 1 1.1056946938994574e+01 2.0127945379101469e+01 5.9088273559785653e+00 41 40 -42
64 1 1.1410387729442652e+01 2.3092622278888285e+01 2.6471149132574134e+00 -43 65 23
23 1 9.5250085470802688e+00 1.8363204109279827e+01 1.1710731895767583e+00 45 47 10
82 1 9.0119849867911295e-01 2.3748308685044186e+01 1.9695976376869256e-01 -15 -1 1
175 1 2.3114656070206699e+01 2.2616863157614475e+01 2.4133821686795409e+00 38 -5 -20
288 1 1.9538304084587956e+01 2.1959007810982044e+01 7.0547201384761371e-01 -71 -24 -75
239 1 1.8645019482052456e+00 2.0002171724435357e+01 3.6630988855058026e+00 51 -31 17
134 1 2.3036457272948631e+01 2.0587127760883803e+01 5.6352707331440879e+00 -76 -17 16
196 1 2.0894388067245615e+01 2.2540349029382462e+01 4.6113552546195438e+00 9 21 12
173 1 8.0935131637581588e+00 1.3740035410022278e+01 1.4686574897890234e+00 38 57 -3
153 1 3.2589146814922474e+00 2.0632124476157507e+01 1.2696001367464110e-01 9 -19 72
481 1 1.3102626233369858e+01 2.4068193723935408e+01 6.6607634842083219e-01 47 -6 -27
45 1 1.3270978616838473e+01 1.8759196613471154e+01 6.2454717781034530e+00 2 81 -80
114 1 1.8415656574299554e+01 2.0754827227116309e+01 6.2503669215799453e+00 -18 24 -10
36 1 1.4133338581299345e+01 1.3080110334882340e+01 1.9734821490846144e+00 99 62 123
237 1 1.5740549904155941e+01 2.3346165640176615e+01 4.7080721305756725e+00 8 -29 -9
271 1 1.2172407548318466e+01 1.5765856639525223e+01 6.7809634042151024e-01 37 28 -51
164 1 3.9118884339775293e+00 1.8273861233834580e+01 3.4460543211877206e+00 57 16 137
57 1 7.0684797924317333e-01 1.7057703602463562e+01 2.0902330614804661e+00 -26 -10 23
401 1 1.7863596585385601e+01 1.4665401494179617e+01 2.6048597510329858e+00 30 18 18
417 1 1.8783710608600245e+01 2.0855335319427063e+01 3.6107520671950666e+00 8 -4 -21
75 1 3.4801940385278658e+00 1.4266089728845158e+01 7.5211374988802602e+00 5 37 0
90 1 1.0492470813517176e+00 1.3456667662902850e+01 4.2033252416990203e+00 -59 -38 -84
144 1 7.6809238399301016e-01 2.1755068820747859e+01 6.0998246863211758e+00 -14 18 56
85 1 1.9486384156177827e+01 2.3484097662636600e+01 7.6959970236254076e+00 13 35 -110
426 1 2.2061954007976404e+01 1.5208209918604974e+01 4.3740252227040539e+00 82 -3 69
221 1 8.8877989144217573e-01 1.9221374769491590e+01 1.5395722876853135e-01 4 -7 44
54 1 1.2727997928240400e+01 1.7687030492615314e+01 2.8212426692191448e+00 -2 15 58
318 1 7.0551358847790526e+00 1.9613745927559052e+01 5.8989185261751844e+00 43 -10 154
329 1 8.9388825541631984e+00 1.5232072069076898e+01 3.9490521358290103e+00 7 -128 -59
189 1 1.0630708662915398e+01 1.6665725784088337e+01 5.8653518693541695e+00 113 -50 -26
15 1 5.5923245157293122e+00 1.7404200099689938e+01 5.9764243236831174e+00 5 -8 -140
508 1 3.9308064214632190e+00 2.4252990465385622e+01 4.5255701778620967e+00 7 12 -63
186 1 1.6817165924688680e+01 1.8458621105128913e+01 5.1915343468282149e+00 -22 181 34
362 1 8.2171262346836009e+00 2.4059265374002692e+01 3.0400956958231862e-01 -55 -13 -70
53 1 5.6017486467963851e-01 2.4011601788136701e+01 4.1109912893812348e+00 49 102 150
511 1 5.0883738447764904e+00 1.4574548494377069e+01 2.1050492504050879e+00 46 6 109
29 1 9.4189710494991186e+00 2.1609917328318680e+01 1.1609873402055237e+00 65 -47 -28
179 1 9.0080357225525169e+00 1.9761467512214814e+01 7.8576729817083404e+00 -76 -78 -52
456 1 2.0463032537392799e+01 1.3904486244122044e+01 7.2316936086201995e+00 -20 -46 13
487 1 4.1917570306538119e+00 1.8104503672804150e+01 5.9370252843298377e-01 33 39 -3
41 1 2.2246290296265705e+01 2.2447538832338090e+01 8.0970767483532633e+00 59 -5 27
322 1 1.5555583903783212e+01 2.1296517996722507e+01 7.1467947700311134e+00 21 62 -10
352 1 1.2714417119236471e+01 2.2132466417551662e+01 4.7118051872554174e+00 45 -42 -68
104 1 6.8518085359783987e+00 1.7039467747419984e+01 2.6356279326953951e+00 73 21 -22
399 1 7.6428012768553728e+00 2.3800485628206829e+01 7.7446765553986712e+00 27 60 -4
392 1 6.4273679704537034e+00 1.5041394054393896e+01 7.4899933844428670e+00 22 19 -69
454 1 2.7724662638406614e+00 1.5439152726398614e+01 3.9668910920476907e+00 -53 49 23
80 1 2.0293710018104036e+01 1.7505580699428684e+01 5.2435171762106103e+00 26 45 6
161 1 1.3811930352993379e+01 1.3229593653040142e+01 5.9474880220814423e+00 36 -31 51
119 1 1.5131666045106689e+01 1.6255713144779058e+01 7.2523095931174106e+00 44 75 100
195 1 2.4336478843539908e+01 1.7017325546083100e+01 4.8518846311764223e+00 -22 -5 72
466 1 2.3577981641743278e+01 1.5086438174773630e+01 1.3274215500380091e+00 110 -22 -20
451 1 2.6024868019816076e+00 1.9527180581472095e+01 6.7404411998446756e+00 62 40 -21
383 1 2.2324964260235731e+01 1.8074927838756942e+01 7.0884840404270610e+00 -31 89 -19
287 1 1.7620737334416447e+01 2.4245894178596664e+01 1.2481569510170325e+00 -20 -3 5
273 1 6.9796947528947841e+00 2.0051046998776371e+01 2.0296122156254168e+00 76 175 126
512 1 1.6909656055625220e+01 1.8540238816633405e+01 1.5673121021303558e+00 -27 -30 100
143 1 1.3617019879305518e+01 2.1237984722412286e+01 6.7145174871436508e-01 44 2 3
3 1 1.3232385375095593e+01 1.5584024769630521e+01 4.7008369712535005e+00 15 48 19
460 1 5.5501543446702231e+00 2.3547763780339281e+01 1.4243835763945949e+00 -107 122 33
320 1 2.1797393966360609e+01 1.9477493708702475e+01 7.5251775144103472e-01 29 82 32
252 1 2.3910649639439619e+01 1.4009600632946805e+01 6.0804168684255906e+00 -55 -92 2
419 1 1.1557540639926609e+01 1.4647060910187708e+01 7.7644274470301289e+00 49 7 22
389 1 2.1787028234446822e+01 2.3728949175108568e+01 3.0409923585406340e-01 10 75 -18
182 1 1.1432130335717790e+01 2.3904061372199557e+01 7.0922096729411432e+00 121 58 44
266 1 1.7787891818335957e+01 1.7832386007540116e+01 8.2508059107053615e+00 34 -61 20
105 1 2.2221258784908983e+01 1.5871184096175769e+01 8.2865045753297988e+00 2 90 12
299 1 2.0425955110714803e+01 2.0414341166716937e+01 8.2551640665740393e+00 43 21 52
21 1 2.0476964039156584e+01 1.2434666422234883e+01 4.1065981753743159e+00 5 -2 -124
197 1 1.9870940470511201e+01 2.0252493622022953e+01 1.0944239046964878e+01 10 50 52
290 1 1.3682626522615161e+01 1.6198150953799633e+01 9.6786528699654202e+00 -9 -91 -70
444 1 2.1772341106920145e+01 1.8964429666193837e+01 1.3889393528197049e+01 -9 -20 17
297 1 1.0128244075109119e+01 1.2960226504276893e+01 1.4092013949750816e+01 11 32 -21
339 1 4.1943647226461653e+00 2.1137166759115544e+01 8.7902984455685171e+00 28 52 -3
502 1 6.7921226264861252e+00 1.8952671020302688e+01 1.4878839451714240e+01 -47 -25 -57