LAMMPS (4 Jan 2019)
Reading data file ...
  orthogonal box = (0.246756 0.246756 0.246756) to (24.5882 24.5882 24.5882)
  1 by 2 by 3 MPI processor grid
  reading atoms ...
  512 atoms
  reading velocities ...
  512 velocities
Neighbor list info ...
  update every 1 steps, delay 0 steps, check yes
  max neighbors/atom: 2000, page size: 100000
  master list distance cutoff = 6.3065
  ghost atom cutoff = 6.3065
  1 neighbor lists, perpetual/occasional/extra = 1 0 0
  (1) pair sw, perpetual
      attributes: full, newton on
      pair build: full/nsq
      stencil: none
      bin: none
Setting up Verlet run ...
  Unit style    : real
  Current step  : 0
  Time step     : 5
Per MPI rank memory allocation (min/avg/max) = 2.697 | 2.698 | 2.699 Mbytes
---------------- Step        0 ----- CPU =      0.0000 (sec) ----------------
Time     = 0.000000 Temp     = 264.588304 Press    = 18469.903928 
PotEng   = -9.757545 KinEng   = 0.787147 Lx       = 24.341488 
Ly       = 24.341488 Lz       = 24.341488 Density  = 1.061987 
Volume   = 14422.527133 
---------------- Step    10000 ----- CPU =      5.7578 (sec) ----------------
Time     = 50000.000000 Temp     = 282.738410 Press    = 2054.018064 
PotEng   = -10.170317 KinEng   = 0.841143 Lx       = 24.646412 
Ly       = 24.646412 Lz       = 24.646412 Density  = 1.023056 
Volume   = 14971.355075 
---------------- Step    20000 ----- CPU =     11.5148 (sec) ----------------
Time     = 100000.000000 Temp     = 279.314482 Press    = 885.999050 
PotEng   = -10.252920 KinEng   = 0.830957 Lx       = 24.633629 
Ly       = 24.633629 Lz       = 24.633629 Density  = 1.024650 
Volume   = 14948.072006 
---------------- Step    30000 ----- CPU =     17.2724 (sec) ----------------
Time     = 150000.000000 Temp     = 265.137273 Press    = 748.672527 
PotEng   = -10.179855 KinEng   = 0.788780 Lx       = 24.632743 
Ly       = 24.632743 Lz       = 24.632743 Density  = 1.024760 
Volume   = 14946.459875 
---------------- Step    40000 ----- CPU =     23.1324 (sec) ----------------
Time     = 200000.000000 Temp     = 268.628540 Press    = 65.535868 
PotEng   = -10.108014 KinEng   = 0.799167 Lx       = 24.783088 
Ly       = 24.783088 Lz       = 24.783088 Density  = 1.006223 
Volume   = 15221.808346 
---------------- Step    50000 ----- CPU =     29.1038 (sec) ----------------
Time     = 250000.000000 Temp     = 281.143643 Press    = 1326.062587 
PotEng   = -10.295385 KinEng   = 0.836399 Lx       = 24.688534 
Ly       = 24.688534 Lz       = 24.688534 Density  = 1.017829 
Volume   = 15048.246700 
---------------- Step    60000 ----- CPU =     35.0983 (sec) ----------------
Time     = 300000.000000 Temp     = 296.200386 Press    = 1591.091224 
PotEng   = -10.199871 KinEng   = 0.881193 Lx       = 24.618659 
Ly       = 24.618659 Lz       = 24.618659 Density  = 1.026520 
Volume   = 14920.836217 
---------------- Step    70000 ----- CPU =     41.0784 (sec) ----------------
Time     = 350000.000000 Temp     = 261.395210 Press    = 913.527346 
PotEng   = -10.247960 KinEng   = 0.777648 Lx       = 24.648475 
Ly       = 24.648475 Lz       = 24.648475 Density  = 1.022799 
Volume   = 14975.115381 
---------------- Step    80000 ----- CPU =     47.1493 (sec) ----------------
Time     = 400000.000000 Temp     = 264.437616 Press    = 1738.239314 
PotEng   = -10.242358 KinEng   = 0.786699 Lx       = 24.686635 
Ly       = 24.686635 Lz       = 24.686635 Density  = 1.018063 
Volume   = 15044.774477 
---------------- Step    90000 ----- CPU =     53.1644 (sec) ----------------
Time     = 450000.000000 Temp     = 258.376085 Press    = 645.063840 
PotEng   = -10.235308 KinEng   = 0.768666 Lx       = 24.634645 
Ly       = 24.634645 Lz       = 24.634645 Density  = 1.024523 
Volume   = 14949.921723 
---------------- Step   100000 ----- CPU =     59.1497 (sec) ----------------
Time     = 500000.000000 Temp     = 284.236707 Press    = 1372.939448 
PotEng   = -10.277830 KinEng   = 0.845601 Lx       = 24.606894 
Ly       = 24.606894 Lz       = 24.606894 Density  = 1.027993 
Volume   = 14899.455243 
---------------- Step   110000 ----- CPU =     65.1370 (sec) ----------------
Time     = 550000.000000 Temp     = 283.742490 Press    = 1254.000509 
PotEng   = -10.213093 KinEng   = 0.844131 Lx       = 24.639877 
Ly       = 24.639877 Lz       = 24.639877 Density  = 1.023870 
Volume   = 14959.449174 
---------------- Step   120000 ----- CPU =     71.0960 (sec) ----------------
Time     = 600000.000000 Temp     = 246.909328 Press    = 263.531083 
PotEng   = -10.237757 KinEng   = 0.734552 Lx       = 24.715826 
Ly       = 24.715826 Lz       = 24.715826 Density  = 1.014460 
Volume   = 15098.207626 
---------------- Step   130000 ----- CPU =     77.0445 (sec) ----------------
Time     = 650000.000000 Temp     = 281.700658 Press    = 1370.183641 
PotEng   = -10.223852 KinEng   = 0.838056 Lx       = 24.573074 
Ly       = 24.573074 Lz       = 24.573074 Density  = 1.032243 
Volume   = 14838.105201 
---------------- Step   140000 ----- CPU =     83.0467 (sec) ----------------
Time     = 700000.000000 Temp     = 266.493872 Press    = 1183.085109 
PotEng   = -10.266444 KinEng   = 0.792816 Lx       = 24.707572 
Ly       = 24.707572 Lz       = 24.707572 Density  = 1.015478 
Volume   = 15083.085629 
---------------- Step   150000 ----- CPU =     89.0213 (sec) ----------------
Time     = 750000.000000 Temp     = 258.318371 Press    = -24.491811 
PotEng   = -10.256552 KinEng   = 0.768494 Lx       = 24.801133 
Ly       = 24.801133 Lz       = 24.801133 Density  = 1.004028 
Volume   = 15255.082270 
---------------- Step   160000 ----- CPU =     95.0064 (sec) ----------------
Time     = 800000.000000 Temp     = 276.372309 Press    = 757.063033 
PotEng   = -10.209975 KinEng   = 0.822204 Lx       = 24.706691 
Ly       = 24.706691 Lz       = 24.706691 Density  = 1.015586 
Volume   = 15081.472977 
---------------- Step   170000 ----- CPU =    100.9916 (sec) ----------------
Time     = 850000.000000 Temp     = 267.926613 Press    = 905.336843 
PotEng   = -10.235792 KinEng   = 0.797079 Lx       = 24.640336 
Ly       = 24.640336 Lz       = 24.640336 Density  = 1.023813 
Volume   = 14960.285628 
---------------- Step   180000 ----- CPU =    106.9526 (sec) ----------------
Time     = 900000.000000 Temp     = 261.687585 Press    = 684.243860 
PotEng   = -10.285584 KinEng   = 0.778517 Lx       = 24.746263 
Ly       = 24.746263 Lz       = 24.746263 Density  = 1.010722 
Volume   = 15154.055171 
---------------- Step   190000 ----- CPU =    112.9550 (sec) ----------------
Time     = 950000.000000 Temp     = 255.496972 Press    = 1489.007216 
PotEng   = -10.234990 KinEng   = 0.760100 Lx       = 24.618197 
Ly       = 24.618197 Lz       = 24.618197 Density  = 1.026578 
Volume   = 14919.996957 
---------------- Step   200000 ----- CPU =    118.9241 (sec) ----------------
Time     = 1000000.000000 Temp     = 274.998868 Press    = 1478.223304 
PotEng   = -10.220494 KinEng   = 0.818118 Lx       = 24.701204 
Ly       = 24.701204 Lz       = 24.701204 Density  = 1.016263 
Volume   = 15071.427508 
---------------- Step   210000 ----- CPU =    124.8946 (sec) ----------------
Time     = 1050000.000000 Temp     = 264.279990 Press    = 856.705077 
PotEng   = -10.235421 KinEng   = 0.786230 Lx       = 24.686056 
Ly       = 24.686056 Lz       = 24.686056 Density  = 1.018135 
Volume   = 15043.716522 
---------------- Step   220000 ----- CPU =    130.8731 (sec) ----------------
Time     = 1100000.000000 Temp     = 272.187665 Press    = 1463.599599 
PotEng   = -10.209946 KinEng   = 0.809755 Lx       = 24.669205 
Ly       = 24.669205 Lz       = 24.669205 Density  = 1.020223 
Volume   = 15012.929877 
---------------- Step   230000 ----- CPU =    136.8820 (sec) ----------------
Time     = 1150000.000000 Temp     = 264.581536 Press    = 1991.605567 
PotEng   = -10.233775 KinEng   = 0.787127 Lx       = 24.608134 
Ly       = 24.608134 Lz       = 24.608134 Density  = 1.027837 
Volume   = 14901.708660 
---------------- Step   240000 ----- CPU =    142.8438 (sec) ----------------
Time     = 1200000.000000 Temp     = 272.959981 Press    = 271.535061 
PotEng   = -10.168939 KinEng   = 0.812053 Lx       = 24.676702 
Ly       = 24.676702 Lz       = 24.676702 Density  = 1.019293 
Volume   = 15026.621975 
---------------- Step   250000 ----- CPU =    148.7986 (sec) ----------------
Time     = 1250000.000000 Temp     = 273.628066 Press    = -444.192422 
PotEng   = -10.235550 KinEng   = 0.814040 Lx       = 24.665423 
Ly       = 24.665423 Lz       = 24.665423 Density  = 1.020692 
Volume   = 15006.025397 
---------------- Step   260000 ----- CPU =    154.7888 (sec) ----------------
Time     = 1300000.000000 Temp     = 272.303766 Press    = 851.348353 
PotEng   = -10.249404 KinEng   = 0.810100 Lx       = 24.620669 
Ly       = 24.620669 Lz       = 24.620669 Density  = 1.026268 
Volume   = 14924.491509 
---------------- Step   270000 ----- CPU =    160.7601 (sec) ----------------
Time     = 1350000.000000 Temp     = 277.823694 Press    = 1473.314219 
PotEng   = -10.243879 KinEng   = 0.826522 Lx       = 24.663789 
Ly       = 24.663789 Lz       = 24.663789 Density  = 1.020895 
Volume   = 15003.044381 
---------------- Step   280000 ----- CPU =    166.7117 (sec) ----------------
Time     = 1400000.000000 Temp     = 258.985084 Press    = 69.393722 
PotEng   = -10.229613 KinEng   = 0.770478 Lx       = 24.701432 
Ly       = 24.701432 Lz       = 24.701432 Density  = 1.016235 
Volume   = 15071.843343 
---------------- Step   290000 ----- CPU =    172.6719 (sec) ----------------
Time     = 1450000.000000 Temp     = 250.087340 Press    = 619.585989 
PotEng   = -10.246157 KinEng   = 0.744007 Lx       = 24.635620 
Ly       = 24.635620 Lz       = 24.635620 Density  = 1.024401 
Volume   = 14951.696210 
---------------- Step   300000 ----- CPU =    178.6714 (sec) ----------------
Time     = 1500000.000000 Temp     = 255.879370 Press    = -188.177290 
PotEng   = -10.264918 KinEng   = 0.761238 Lx       = 24.723524 
Ly       = 24.723524 Lz       = 24.723524 Density  = 1.013513 
Volume   = 15112.320060 
---------------- Step   310000 ----- CPU =    184.6364 (sec) ----------------
Time     = 1550000.000000 Temp     = 291.650261 Press    = 1205.574411 
PotEng   = -10.270979 KinEng   = 0.867656 Lx       = 24.642794 
Ly       = 24.642794 Lz       = 24.642794 Density  = 1.023507 
Volume   = 14964.762638 
---------------- Step   320000 ----- CPU =    190.6263 (sec) ----------------
Time     = 1600000.000000 Temp     = 274.664589 Press    = 2509.300059 
PotEng   = -10.246239 KinEng   = 0.817124 Lx       = 24.589359 
Ly       = 24.589359 Lz       = 24.589359 Density  = 1.030194 
Volume   = 14867.625032 
---------------- Step   330000 ----- CPU =    196.5611 (sec) ----------------
Time     = 1650000.000000 Temp     = 267.157325 Press    = -42.271128 
PotEng   = -10.238650 KinEng   = 0.794790 Lx       = 24.791509 
Ly       = 24.791509 Lz       = 24.791509 Density  = 1.005198 
Volume   = 15237.330291 
---------------- Step   340000 ----- CPU =    202.5433 (sec) ----------------
Time     = 1700000.000000 Temp     = 277.236616 Press    = 1415.694992 
PotEng   = -10.211016 KinEng   = 0.824776 Lx       = 24.576475 
Ly       = 24.576475 Lz       = 24.576475 Density  = 1.031815 
Volume   = 14844.267963 
---------------- Step   350000 ----- CPU =    208.5486 (sec) ----------------
Time     = 1750000.000000 Temp     = 258.664166 Press    = 1518.102267 
PotEng   = -10.207603 KinEng   = 0.769523 Lx       = 24.660438 
Ly       = 24.660438 Lz       = 24.660438 Density  = 1.021311 
Volume   = 14996.929266 
---------------- Step   360000 ----- CPU =    214.5112 (sec) ----------------
Time     = 1800000.000000 Temp     = 270.625196 Press    = 2292.882154 
PotEng   = -10.262824 KinEng   = 0.805107 Lx       = 24.567380 
Ly       = 24.567380 Lz       = 24.567380 Density  = 1.032961 
Volume   = 14827.794030 
---------------- Step   370000 ----- CPU =    220.4621 (sec) ----------------
Time     = 1850000.000000 Temp     = 278.786188 Press    = 1570.284936 
PotEng   = -10.258514 KinEng   = 0.829386 Lx       = 24.675857 
Ly       = 24.675857 Lz       = 24.675857 Density  = 1.019398 
Volume   = 15025.077904 
---------------- Step   380000 ----- CPU =    226.4319 (sec) ----------------
Time     = 1900000.000000 Temp     = 279.973995 Press    = 834.760799 
PotEng   = -10.233039 KinEng   = 0.832919 Lx       = 24.768173 
Ly       = 24.768173 Lz       = 24.768173 Density  = 1.008042 
Volume   = 15194.343016 
---------------- Step   390000 ----- CPU =    232.4149 (sec) ----------------
Time     = 1950000.000000 Temp     = 269.570715 Press    = 970.281493 
PotEng   = -10.241817 KinEng   = 0.801970 Lx       = 24.591930 
Ly       = 24.591930 Lz       = 24.591930 Density  = 1.029871 
Volume   = 14872.290225 
---------------- Step   400000 ----- CPU =    238.4033 (sec) ----------------
Time     = 2000000.000000 Temp     = 252.112872 Press    = 1315.056622 
PotEng   = -10.259974 KinEng   = 0.750033 Lx       = 24.615191 
Ly       = 24.615191 Lz       = 24.615191 Density  = 1.026954 
Volume   = 14914.532447 
---------------- Step   410000 ----- CPU =    244.3789 (sec) ----------------
Time     = 2050000.000000 Temp     = 284.641055 Press    = 70.642155 
PotEng   = -10.250439 KinEng   = 0.846804 Lx       = 24.682096 
Ly       = 24.682096 Lz       = 24.682096 Density  = 1.018625 
Volume   = 15036.477700 
---------------- Step   420000 ----- CPU =    250.3358 (sec) ----------------
Time     = 2100000.000000 Temp     = 273.640481 Press    = 132.999081 
PotEng   = -10.209403 KinEng   = 0.814077 Lx       = 24.697739 
Ly       = 24.697739 Lz       = 24.697739 Density  = 1.016691 
Volume   = 15065.084685 
---------------- Step   430000 ----- CPU =    256.3453 (sec) ----------------
Time     = 2150000.000000 Temp     = 282.921223 Press    = 1242.892873 
PotEng   = -10.256540 KinEng   = 0.841687 Lx       = 24.623766 
Ly       = 24.623766 Lz       = 24.623766 Density  = 1.025881 
Volume   = 14930.123615 
---------------- Step   440000 ----- CPU =    262.3316 (sec) ----------------
Time     = 2200000.000000 Temp     = 261.617428 Press    = 839.048150 
PotEng   = -10.285914 KinEng   = 0.778309 Lx       = 24.683103 
Ly       = 24.683103 Lz       = 24.683103 Density  = 1.018501 
Volume   = 15038.317268 
---------------- Step   450000 ----- CPU =    268.2892 (sec) ----------------
Time     = 2250000.000000 Temp     = 266.600267 Press    = 1119.097619 
PotEng   = -10.264914 KinEng   = 0.793133 Lx       = 24.653447 
Ly       = 24.653447 Lz       = 24.653447 Density  = 1.022180 
Volume   = 14984.178411 
---------------- Step   460000 ----- CPU =    274.3771 (sec) ----------------
Time     = 2300000.000000 Temp     = 278.029676 Press    = 1425.273339 
PotEng   = -10.219091 KinEng   = 0.827135 Lx       = 24.647837 
Ly       = 24.647837 Lz       = 24.647837 Density  = 1.022879 
Volume   = 14973.951638 
---------------- Step   470000 ----- CPU =    280.3499 (sec) ----------------
Time     = 2350000.000000 Temp     = 254.821039 Press    = 983.864403 
PotEng   = -10.262409 KinEng   = 0.758090 Lx       = 24.633505 
Ly       = 24.633505 Lz       = 24.633505 Density  = 1.024665 
Volume   = 14947.845816 
---------------- Step   480000 ----- CPU =    286.3094 (sec) ----------------
Time     = 2400000.000000 Temp     = 275.852780 Press    = 455.742127 
PotEng   = -10.237062 KinEng   = 0.820659 Lx       = 24.702044 
Ly       = 24.702044 Lz       = 24.702044 Density  = 1.016159 
Volume   = 15072.964628 
---------------- Step   490000 ----- CPU =    292.2661 (sec) ----------------
Time     = 2450000.000000 Temp     = 252.148972 Press    = 958.865021 
PotEng   = -10.266583 KinEng   = 0.750140 Lx       = 24.638853 
Ly       = 24.638853 Lz       = 24.638853 Density  = 1.023998 
Volume   = 14957.584049 
---------------- Step   500000 ----- CPU =    298.2484 (sec) ----------------
Time     = 2500000.000000 Temp     = 272.224499 Press    = 200.405289 
PotEng   = -10.179121 KinEng   = 0.809865 Lx       = 24.661117 
Ly       = 24.661117 Lz       = 24.661117 Density  = 1.021227 
Volume   = 14998.168391 
---------------- Step   510000 ----- CPU =    304.2521 (sec) ----------------
Time     = 2550000.000000 Temp     = 279.973620 Press    = 9.216470 
PotEng   = -10.235388 KinEng   = 0.832918 Lx       = 24.718707 
Ly       = 24.718707 Lz       = 24.718707 Density  = 1.014106 
Volume   = 15103.487023 
---------------- Step   520000 ----- CPU =    310.2144 (sec) ----------------
Time     = 2600000.000000 Temp     = 281.530047 Press    = 1067.867193 
PotEng   = -10.281418 KinEng   = 0.837549 Lx       = 24.609705 
Ly       = 24.609705 Lz       = 24.609705 Density  = 1.027641 
Volume   = 14904.562387 
---------------- Step   530000 ----- CPU =    316.1868 (sec) ----------------
Time     = 2650000.000000 Temp     = 295.217562 Press    = 925.953062 
PotEng   = -10.228998 KinEng   = 0.878269 Lx       = 24.689387 
Ly       = 24.689387 Lz       = 24.689387 Density  = 1.017723 
Volume   = 15049.806715 
---------------- Step   540000 ----- CPU =    322.1371 (sec) ----------------
Time     = 2700000.000000 Temp     = 283.925801 Press    = 1397.965157 
PotEng   = -10.250137 KinEng   = 0.844676 Lx       = 24.646244 
Ly       = 24.646244 Lz       = 24.646244 Density  = 1.023077 
Volume   = 14971.048931 
---------------- Step   550000 ----- CPU =    328.1023 (sec) ----------------
Time     = 2750000.000000 Temp     = 257.592314 Press    = 1223.368076 
PotEng   = -10.332526 KinEng   = 0.766334 Lx       = 24.596406 
Ly       = 24.596406 Lz       = 24.596406 Density  = 1.029309 
Volume   = 14880.411838 
---------------- Step   560000 ----- CPU =    334.0879 (sec) ----------------
Time     = 2800000.000000 Temp     = 274.456798 Press    = 632.779127 
PotEng   = -10.197939 KinEng   = 0.816506 Lx       = 24.763864 
Ly       = 24.763864 Lz       = 24.763864 Density  = 1.008568 
Volume   = 15186.414560 
---------------- Step   570000 ----- CPU =    340.0909 (sec) ----------------
Time     = 2850000.000000 Temp     = 262.357633 Press    = 1272.482460 
PotEng   = -10.253143 KinEng   = 0.780511 Lx       = 24.616543 
Ly       = 24.616543 Lz       = 24.616543 Density  = 1.026785 
Volume   = 14916.990461 
---------------- Step   580000 ----- CPU =    346.0715 (sec) ----------------
Time     = 2900000.000000 Temp     = 259.870764 Press    = 2677.199944 
PotEng   = -10.231256 KinEng   = 0.773112 Lx       = 24.561412 
Ly       = 24.561412 Lz       = 24.561412 Density  = 1.033714 
Volume   = 14816.990723 
---------------- Step   590000 ----- CPU =    352.0258 (sec) ----------------
Time     = 2950000.000000 Temp     = 278.714158 Press    = 1008.504253 
PotEng   = -10.269376 KinEng   = 0.829171 Lx       = 24.653345 
Ly       = 24.653345 Lz       = 24.653345 Density  = 1.022193 
Volume   = 14983.992056 
---------------- Step   600000 ----- CPU =    358.0014 (sec) ----------------
Time     = 3000000.000000 Temp     = 272.734203 Press    = -244.352441 
PotEng   = -10.288732 KinEng   = 0.811381 Lx       = 24.678042 
Ly       = 24.678042 Lz       = 24.678042 Density  = 1.019127 
Volume   = 15029.068882 
---------------- Step   610000 ----- CPU =    363.9893 (sec) ----------------
Time     = 3050000.000000 Temp     = 262.345961 Press    = 92.456808 
PotEng   = -10.270754 KinEng   = 0.780476 Lx       = 24.732686 
Ly       = 24.732686 Lz       = 24.732686 Density  = 1.012387 
Volume   = 15129.126981 
---------------- Step   620000 ----- CPU =    369.9854 (sec) ----------------
Time     = 3100000.000000 Temp     = 266.946685 Press    = 600.490545 
PotEng   = -10.233437 KinEng   = 0.794163 Lx       = 24.662574 
Ly       = 24.662574 Lz       = 24.662574 Density  = 1.021046 
Volume   = 15000.826614 
---------------- Step   630000 ----- CPU =    375.9849 (sec) ----------------
Time     = 3150000.000000 Temp     = 272.794529 Press    = 1128.107651 
PotEng   = -10.227450 KinEng   = 0.811560 Lx       = 24.604815 
Ly       = 24.604815 Lz       = 24.604815 Density  = 1.028254 
Volume   = 14895.679194 
---------------- Step   640000 ----- CPU =    381.9926 (sec) ----------------
Time     = 3200000.000000 Temp     = 276.685011 Press    = 780.437131 
PotEng   = -10.237553 KinEng   = 0.823135 Lx       = 24.654873 
Ly       = 24.654873 Lz       = 24.654873 Density  = 1.022003 
Volume   = 14986.779425 
---------------- Step   650000 ----- CPU =    387.9902 (sec) ----------------
Time     = 3250000.000000 Temp     = 264.710378 Press    = 1365.478962 
PotEng   = -10.182408 KinEng   = 0.787510 Lx       = 24.640627 
Ly       = 24.640627 Lz       = 24.640627 Density  = 1.023777 
Volume   = 14960.815009 
---------------- Step   660000 ----- CPU =    393.9925 (sec) ----------------
Time     = 3300000.000000 Temp     = 285.664707 Press    = 1908.024580 
PotEng   = -10.253270 KinEng   = 0.849849 Lx       = 24.598541 
Ly       = 24.598541 Lz       = 24.598541 Density  = 1.029041 
Volume   = 14884.286995 
---------------- Step   670000 ----- CPU =    399.9801 (sec) ----------------
Time     = 3350000.000000 Temp     = 290.530438 Press    = 1625.008097 
PotEng   = -10.286280 KinEng   = 0.864325 Lx       = 24.702544 
Ly       = 24.702544 Lz       = 24.702544 Density  = 1.016098 
Volume   = 15073.880140 
---------------- Step   680000 ----- CPU =    405.9327 (sec) ----------------
Time     = 3400000.000000 Temp     = 275.871512 Press    = 1176.152147 
PotEng   = -10.218317 KinEng   = 0.820714 Lx       = 24.704595 
Ly       = 24.704595 Lz       = 24.704595 Density  = 1.015845 
Volume   = 15077.634704 
---------------- Step   690000 ----- CPU =    411.8910 (sec) ----------------
Time     = 3450000.000000 Temp     = 247.683601 Press    = 97.814405 
PotEng   = -10.175626 KinEng   = 0.736856 Lx       = 24.689692 
Ly       = 24.689692 Lz       = 24.689692 Density  = 1.017685 
Volume   = 15050.364203 
---------------- Step   700000 ----- CPU =    417.8715 (sec) ----------------
Time     = 3500000.000000 Temp     = 269.400721 Press    = 1037.605768 
PotEng   = -10.232429 KinEng   = 0.801464 Lx       = 24.691315 
Ly       = 24.691315 Lz       = 24.691315 Density  = 1.017485 
Volume   = 15053.332743 
---------------- Step   710000 ----- CPU =    423.8062 (sec) ----------------
Time     = 3550000.000000 Temp     = 266.247477 Press    = 443.153734 
PotEng   = -10.264223 KinEng   = 0.792083 Lx       = 24.685662 
Ly       = 24.685662 Lz       = 24.685662 Density  = 1.018184 
Volume   = 15042.996706 
---------------- Step   720000 ----- CPU =    429.7581 (sec) ----------------
Time     = 3600000.000000 Temp     = 288.840254 Press    = 1184.487704 
PotEng   = -10.253807 KinEng   = 0.859296 Lx       = 24.713662 
Ly       = 24.713662 Lz       = 24.713662 Density  = 1.014727 
Volume   = 15094.242539 
---------------- Step   730000 ----- CPU =    435.7762 (sec) ----------------
Time     = 3650000.000000 Temp     = 264.617957 Press    = 412.856613 
PotEng   = -10.127992 KinEng   = 0.787235 Lx       = 24.744901 
Ly       = 24.744901 Lz       = 24.744901 Density  = 1.010889 
Volume   = 15151.554014 
---------------- Step   740000 ----- CPU =    441.7328 (sec) ----------------
Time     = 3700000.000000 Temp     = 290.488538 Press    = 1412.061476 
PotEng   = -10.211973 KinEng   = 0.864200 Lx       = 24.630770 
Ly       = 24.630770 Lz       = 24.630770 Density  = 1.025006 
Volume   = 14942.868164 
---------------- Step   750000 ----- CPU =    447.6900 (sec) ----------------
Time     = 3750000.000000 Temp     = 260.679373 Press    = 1881.458755 
PotEng   = -10.246938 KinEng   = 0.775518 Lx       = 24.568706 
Ly       = 24.568706 Lz       = 24.568706 Density  = 1.032794 
Volume   = 14830.194486 
---------------- Step   760000 ----- CPU =    453.6696 (sec) ----------------
Time     = 3800000.000000 Temp     = 271.619063 Press    = 114.280645 
PotEng   = -10.231600 KinEng   = 0.808063 Lx       = 24.747533 
Ly       = 24.747533 Lz       = 24.747533 Density  = 1.010566 
Volume   = 15156.388029 
---------------- Step   770000 ----- CPU =    459.6495 (sec) ----------------
Time     = 3850000.000000 Temp     = 289.424747 Press    = -354.050083 
PotEng   = -10.188862 KinEng   = 0.861035 Lx       = 24.738571 
Ly       = 24.738571 Lz       = 24.738571 Density  = 1.011665 
Volume   = 15139.929421 
---------------- Step   780000 ----- CPU =    465.6446 (sec) ----------------
Time     = 3900000.000000 Temp     = 274.851811 Press    = 375.451158 
PotEng   = -10.249347 KinEng   = 0.817681 Lx       = 24.606202 
Ly       = 24.606202 Lz       = 24.606202 Density  = 1.028080 
Volume   = 14898.198853 
---------------- Step   790000 ----- CPU =    471.6572 (sec) ----------------
Time     = 3950000.000000 Temp     = 272.502524 Press    = 1634.306770 
PotEng   = -10.243221 KinEng   = 0.810692 Lx       = 24.703302 
Ly       = 24.703302 Lz       = 24.703302 Density  = 1.016004 
Volume   = 15075.268089 
---------------- Step   800000 ----- CPU =    477.6019 (sec) ----------------
Time     = 4000000.000000 Temp     = 268.265685 Press    = 2525.962203 
PotEng   = -10.221063 KinEng   = 0.798087 Lx       = 24.581872 
Ly       = 24.581872 Lz       = 24.581872 Density  = 1.031135 
Volume   = 14854.048716 
---------------- Step   810000 ----- CPU =    483.5826 (sec) ----------------
Time     = 4050000.000000 Temp     = 273.752574 Press    = 359.274789 
PotEng   = -10.204043 KinEng   = 0.814411 Lx       = 24.765401 
Ly       = 24.765401 Lz       = 24.765401 Density  = 1.008380 
Volume   = 15189.242354 
---------------- Step   820000 ----- CPU =    489.6038 (sec) ----------------
Time     = 4100000.000000 Temp     = 277.419033 Press    = 1328.322687 
PotEng   = -10.236002 KinEng   = 0.825318 Lx       = 24.606899 
Ly       = 24.606899 Lz       = 24.606899 Density  = 1.027992 
Volume   = 14899.464560 
---------------- Step   830000 ----- CPU =    495.6138 (sec) ----------------
Time     = 4150000.000000 Temp     = 270.257672 Press    = 353.738944 
PotEng   = -10.127355 KinEng   = 0.804013 Lx       = 24.659681 
Ly       = 24.659681 Lz       = 24.659681 Density  = 1.021405 
Volume   = 14995.548113 
---------------- Step   840000 ----- CPU =    501.6051 (sec) ----------------
Time     = 4200000.000000 Temp     = 277.161842 Press    = 1583.851060 
PotEng   = -10.241243 KinEng   = 0.824553 Lx       = 24.585727 
Ly       = 24.585727 Lz       = 24.585727 Density  = 1.030650 
Volume   = 14861.038088 
---------------- Step   850000 ----- CPU =    507.6082 (sec) ----------------
Time     = 4250000.000000 Temp     = 268.785533 Press    = 1204.233445 
PotEng   = -10.194723 KinEng   = 0.799634 Lx       = 24.595157 
Ly       = 24.595157 Lz       = 24.595157 Density  = 1.029465 
Volume   = 14878.144895 
---------------- Step   860000 ----- CPU =    513.6239 (sec) ----------------
Time     = 4300000.000000 Temp     = 291.119291 Press    = 1885.013493 
PotEng   = -10.229202 KinEng   = 0.866076 Lx       = 24.663792 
Ly       = 24.663792 Lz       = 24.663792 Density  = 1.020895 
Volume   = 15003.049082 
---------------- Step   870000 ----- CPU =    519.5683 (sec) ----------------
Time     = 4350000.000000 Temp     = 286.062053 Press    = 637.672503 
PotEng   = -10.202430 KinEng   = 0.851031 Lx       = 24.589461 
Ly       = 24.589461 Lz       = 24.589461 Density  = 1.030181 
Volume   = 14867.810760 
---------------- Step   880000 ----- CPU =    525.5538 (sec) ----------------
Time     = 4400000.000000 Temp     = 255.159438 Press    = 1799.653220 
PotEng   = -10.211163 KinEng   = 0.759096 Lx       = 24.581111 
Ly       = 24.581111 Lz       = 24.581111 Density  = 1.031231 
Volume   = 14852.668948 
---------------- Step   890000 ----- CPU =    531.4832 (sec) ----------------
Time     = 4450000.000000 Temp     = 285.949561 Press    = 1577.975577 
PotEng   = -10.221652 KinEng   = 0.850697 Lx       = 24.641918 
Ly       = 24.641918 Lz       = 24.641918 Density  = 1.023616 
Volume   = 14963.167691 
---------------- Step   900000 ----- CPU =    537.4631 (sec) ----------------
Time     = 4500000.000000 Temp     = 274.616242 Press    = 1092.364194 
PotEng   = -10.215459 KinEng   = 0.816980 Lx       = 24.752421 
Ly       = 24.752421 Lz       = 24.752421 Density  = 1.009968 
Volume   = 15165.371822 
---------------- Step   910000 ----- CPU =    543.4519 (sec) ----------------
Time     = 4550000.000000 Temp     = 266.240646 Press    = -13.706991 
PotEng   = -10.291075 KinEng   = 0.792063 Lx       = 24.740388 
Ly       = 24.740388 Lz       = 24.740388 Density  = 1.011442 
Volume   = 15143.264941 
---------------- Step   920000 ----- CPU =    549.4001 (sec) ----------------
Time     = 4600000.000000 Temp     = 267.237927 Press    = 989.571821 
PotEng   = -10.309658 KinEng   = 0.795030 Lx       = 24.664066 
Ly       = 24.664066 Lz       = 24.664066 Density  = 1.020861 
Volume   = 15003.550606 
---------------- Step   930000 ----- CPU =    555.3963 (sec) ----------------
Time     = 4650000.000000 Temp     = 263.817127 Press    = 97.715765 
PotEng   = -10.243590 KinEng   = 0.784853 Lx       = 24.736418 
Ly       = 24.736418 Lz       = 24.736418 Density  = 1.011929 
Volume   = 15135.975278 
---------------- Step   940000 ----- CPU =    561.3819 (sec) ----------------
Time     = 4700000.000000 Temp     = 281.675022 Press    = 1249.032893 
PotEng   = -10.210555 KinEng   = 0.837980 Lx       = 24.682120 
Ly       = 24.682120 Lz       = 24.682120 Density  = 1.018622 
Volume   = 15036.520958 
---------------- Step   950000 ----- CPU =    567.3324 (sec) ----------------
Time     = 4750000.000000 Temp     = 271.570677 Press    = 742.823619 
PotEng   = -10.257657 KinEng   = 0.807920 Lx       = 24.655865 
Ly       = 24.655865 Lz       = 24.655865 Density  = 1.021880 
Volume   = 14988.587544 
---------------- Step   960000 ----- CPU =    573.3296 (sec) ----------------
Time     = 4800000.000000 Temp     = 267.659653 Press    = 1260.156301 
PotEng   = -10.279309 KinEng   = 0.796284 Lx       = 24.698288 
Ly       = 24.698288 Lz       = 24.698288 Density  = 1.016623 
Volume   = 15066.090152 
---------------- Step   970000 ----- CPU =    579.3379 (sec) ----------------
Time     = 4850000.000000 Temp     = 278.123069 Press    = 426.620963 
PotEng   = -10.166457 KinEng   = 0.827413 Lx       = 24.714655 
Ly       = 24.714655 Lz       = 24.714655 Density  = 1.014605 
Volume   = 15096.060850 
---------------- Step   980000 ----- CPU =    585.3366 (sec) ----------------
Time     = 4900000.000000 Temp     = 267.864056 Press    = 923.860329 
PotEng   = -10.206881 KinEng   = 0.796892 Lx       = 24.742766 
Ly       = 24.742766 Lz       = 24.742766 Density  = 1.011150 
Volume   = 15147.632464 
---------------- Step   990000 ----- CPU =    591.3016 (sec) ----------------
Time     = 4950000.000000 Temp     = 248.800425 Press    = 466.638457 
PotEng   = -10.259187 KinEng   = 0.740178 Lx       = 24.713009 
Ly       = 24.713009 Lz       = 24.713009 Density  = 1.014807 
Volume   = 15093.045841 
---------------- Step  1000000 ----- CPU =    597.2448 (sec) ----------------
Time     = 5000000.000000 Temp     = 281.358951 Press    = 1403.078600 
PotEng   = -10.223183 KinEng   = 0.837040 Lx       = 24.686427 
Ly       = 24.686427 Lz       = 24.686427 Density  = 1.018089 
Volume   = 15044.393551 
Loop time of 597.245 on 6 procs for 1000000 steps with 512 atoms

Performance: 723.321 ns/day, 0.033 hours/ns, 1674.355 timesteps/s
97.2% CPU use with 6 MPI tasks x no OpenMP threads

MPI task timing breakdown:
Section |  min time  |  avg time  |  max time  |%varavg| %total
---------------------------------------------------------------
Pair    | 504.08     | 506.16     | 508        |   6.0 | 84.75
Neigh   | 13.827     | 13.84      | 13.861     |   0.4 |  2.32
Comm    | 62.267     | 63.72      | 65.806     |  14.9 | 10.67
Output  | 0.0022674  | 0.0038047  | 0.011477   |   5.6 |  0.00
Modify  | 10.838     | 11.165     | 11.351     |   5.3 |  1.87
Other   |            | 2.351      |            |       |  0.39

Nlocal:    85.3333 ave 91 max 80 min
Histogram: 1 0 1 1 1 0 0 0 1 1
Nghost:    581.5 ave 596 max 570 min
Histogram: 2 0 0 2 0 0 0 0 0 2
Neighs:    0 ave 0 max 0 min
Histogram: 6 0 0 0 0 0 0 0 0 0
FullNghs:  2900.67 ave 3073 max 2759 min
Histogram: 2 0 1 0 1 0 0 0 0 2

Total # of neighbors = 17404
Ave neighs/atom = 33.9922
Neighbor list builds = 61463
Dangerous builds = 0
Setting up Verlet run ...
  Unit style    : real
  Current step  : 1000000
  Time step     : 5
Per MPI rank memory allocation (min/avg/max) = 2.945 | 2.946 | 2.947 Mbytes
---------------- Step  1000000 ----- CPU =      0.0000 (sec) ----------------
Time     = 5000000.000000 Temp     = 281.358951 Press    = 1403.078600 
PotEng   = -10.223183 KinEng   = 0.837040 Lx       = 24.686427 
Ly       = 24.686427 Lz       = 24.686427 Density  = 1.018089 
Volume   = 15044.393551 
---------------- Step  1010000 ----- CPU =      5.9651 (sec) ----------------
Time     = 5050000.000000 Temp     = 266.591116 Press    = 985.561122 
PotEng   = -10.257835 KinEng   = 0.793105 Lx       = 24.598563 
Ly       = 24.598563 Lz       = 24.598563 Density  = 1.029038 
Volume   = 14884.327142 
---------------- Step  1020000 ----- CPU =     11.9510 (sec) ----------------
Time     = 5100000.000000 Temp     = 266.008885 Press    = 1814.233786 
PotEng   = -10.265304 KinEng   = 0.791373 Lx       = 24.602377 
Ly       = 24.602377 Lz       = 24.602377 Density  = 1.028559 
Volume   = 14891.252067 
---------------- Step  1030000 ----- CPU =     17.9745 (sec) ----------------
Time     = 5150000.000000 Temp     = 280.682147 Press    = 981.508026 
PotEng   = -10.287874 KinEng   = 0.835026 Lx       = 24.644539 
Ly       = 24.644539 Lz       = 24.644539 Density  = 1.023289 
Volume   = 14967.942905 
---------------- Step  1040000 ----- CPU =     23.9606 (sec) ----------------
Time     = 5200000.000000 Temp     = 265.502765 Press    = 806.342085 
PotEng   = -10.217295 KinEng   = 0.789868 Lx       = 24.699968 
Ly       = 24.699968 Lz       = 24.699968 Density  = 1.016416 
Volume   = 15069.163937 
---------------- Step  1050000 ----- CPU =     29.9625 (sec) ----------------
Time     = 5250000.000000 Temp     = 267.809842 Press    = 935.372099 
PotEng   = -10.202378 KinEng   = 0.796731 Lx       = 24.660865 
Ly       = 24.660865 Lz       = 24.660865 Density  = 1.021258 
Volume   = 14997.708770 
---------------- Step  1060000 ----- CPU =     35.9510 (sec) ----------------
Time     = 5300000.000000 Temp     = 270.156440 Press    = 1377.294799 
PotEng   = -10.207131 KinEng   = 0.803712 Lx       = 24.660631 
Ly       = 24.660631 Lz       = 24.660631 Density  = 1.021287 
Volume   = 14997.281224 
---------------- Step  1070000 ----- CPU =     41.9754 (sec) ----------------
Time     = 5350000.000000 Temp     = 258.827689 Press    = 2092.375216 
PotEng   = -10.229173 KinEng   = 0.770009 Lx       = 24.572007 
Ly       = 24.572007 Lz       = 24.572007 Density  = 1.032378 
Volume   = 14836.172642 
---------------- Step  1080000 ----- CPU =     47.9396 (sec) ----------------
Time     = 5400000.000000 Temp     = 285.503668 Press    = 1459.524669 
PotEng   = -10.261382 KinEng   = 0.849370 Lx       = 24.639912 
Ly       = 24.639912 Lz       = 24.639912 Density  = 1.023866 
Volume   = 14959.513220 
---------------- Step  1090000 ----- CPU =     53.9316 (sec) ----------------
Time     = 5450000.000000 Temp     = 277.178852 Press    = 644.364842 
PotEng   = -10.195692 KinEng   = 0.824604 Lx       = 24.717212 
Ly       = 24.717212 Lz       = 24.717212 Density  = 1.014290 
Volume   = 15100.747285 
---------------- Step  1100000 ----- CPU =     59.9044 (sec) ----------------
Time     = 5500000.000000 Temp     = 246.102749 Press    = 283.209382 
PotEng   = -10.261630 KinEng   = 0.732153 Lx       = 24.637960 
Ly       = 24.637960 Lz       = 24.637960 Density  = 1.024109 
Volume   = 14955.957487 
---------------- Step  1110000 ----- CPU =     65.9156 (sec) ----------------
Time     = 5550000.000000 Temp     = 273.454945 Press    = 748.925759 
PotEng   = -10.252063 KinEng   = 0.813525 Lx       = 24.664403 
Ly       = 24.664403 Lz       = 24.664403 Density  = 1.020819 
Volume   = 15004.165311 
---------------- Step  1120000 ----- CPU =     71.8792 (sec) ----------------
Time     = 5600000.000000 Temp     = 275.536898 Press    = 1853.312697 
PotEng   = -10.224958 KinEng   = 0.819719 Lx       = 24.573728 
Ly       = 24.573728 Lz       = 24.573728 Density  = 1.032161 
Volume   = 14839.290597 
---------------- Step  1130000 ----- CPU =     77.8369 (sec) ----------------
Time     = 5650000.000000 Temp     = 268.999715 Press    = 509.234952 
PotEng   = -10.221739 KinEng   = 0.800271 Lx       = 24.699716 
Ly       = 24.699716 Lz       = 24.699716 Density  = 1.016447 
Volume   = 15068.702415 
---------------- Step  1140000 ----- CPU =     83.8048 (sec) ----------------
Time     = 5700000.000000 Temp     = 257.167253 Press    = 849.827623 
PotEng   = -10.241008 KinEng   = 0.765070 Lx       = 24.669050 
Ly       = 24.669050 Lz       = 24.669050 Density  = 1.020242 
Volume   = 15012.646923 
---------------- Step  1150000 ----- CPU =     89.7784 (sec) ----------------
Time     = 5750000.000000 Temp     = 284.192723 Press    = 301.689082 
PotEng   = -10.196320 KinEng   = 0.845470 Lx       = 24.703874 
Ly       = 24.703874 Lz       = 24.703874 Density  = 1.015934 
Volume   = 15076.314993 
---------------- Step  1160000 ----- CPU =     95.7524 (sec) ----------------
Time     = 5800000.000000 Temp     = 270.000781 Press    = 1197.447515 
PotEng   = -10.179368 KinEng   = 0.803249 Lx       = 24.623616 
Ly       = 24.623616 Lz       = 24.623616 Density  = 1.025900 
Volume   = 14929.851156 
---------------- Step  1170000 ----- CPU =    101.7581 (sec) ----------------
Time     = 5850000.000000 Temp     = 280.930756 Press    = 1295.456046 
PotEng   = -10.256724 KinEng   = 0.835766 Lx       = 24.629572 
Ly       = 24.629572 Lz       = 24.629572 Density  = 1.025156 
Volume   = 14940.687717 
---------------- Step  1180000 ----- CPU =    107.7320 (sec) ----------------
Time     = 5900000.000000 Temp     = 288.526178 Press    = 2204.553141 
PotEng   = -10.296534 KinEng   = 0.858362 Lx       = 24.669864 
Ly       = 24.669864 Lz       = 24.669864 Density  = 1.020141 
Volume   = 15014.132451 
---------------- Step  1190000 ----- CPU =    113.6776 (sec) ----------------
Time     = 5950000.000000 Temp     = 281.306137 Press    = 1173.075822 
PotEng   = -10.306271 KinEng   = 0.836882 Lx       = 24.652856 
Ly       = 24.652856 Lz       = 24.652856 Density  = 1.022254 
Volume   = 14983.101671 
---------------- Step  1200000 ----- CPU =    119.6596 (sec) ----------------
Time     = 6000000.000000 Temp     = 260.002022 Press    = 1208.801394 
PotEng   = -10.255242 KinEng   = 0.773503 Lx       = 24.632417 
Ly       = 24.632417 Lz       = 24.632417 Density  = 1.024801 
Volume   = 14945.865744 
---------------- Step  1210000 ----- CPU =    125.6720 (sec) ----------------
Time     = 6050000.000000 Temp     = 262.546831 Press    = 2494.770570 
PotEng   = -10.219468 KinEng   = 0.781074 Lx       = 24.536060 
Ly       = 24.536060 Lz       = 24.536060 Density  = 1.036922 
Volume   = 14771.155663 
---------------- Step  1220000 ----- CPU =    131.6424 (sec) ----------------
Time     = 6100000.000000 Temp     = 271.615961 Press    = 16.177230 
PotEng   = -10.263904 KinEng   = 0.808054 Lx       = 24.698264 
Ly       = 24.698264 Lz       = 24.698264 Density  = 1.016626 
Volume   = 15066.045089 
---------------- Step  1230000 ----- CPU =    137.6264 (sec) ----------------
Time     = 6150000.000000 Temp     = 252.753354 Press    = 341.983326 
PotEng   = -10.227932 KinEng   = 0.751938 Lx       = 24.728967 
Ly       = 24.728967 Lz       = 24.728967 Density  = 1.012844 
Volume   = 15122.302349 
---------------- Step  1240000 ----- CPU =    143.6378 (sec) ----------------
Time     = 6200000.000000 Temp     = 259.980776 Press    = 487.292004 
PotEng   = -10.195871 KinEng   = 0.773440 Lx       = 24.673815 
Ly       = 24.673815 Lz       = 24.673815 Density  = 1.019651 
Volume   = 15021.347804 
---------------- Step  1250000 ----- CPU =    149.6007 (sec) ----------------
Time     = 6250000.000000 Temp     = 267.479348 Press    = -23.080643 
PotEng   = -10.188803 KinEng   = 0.795748 Lx       = 24.679273 
Ly       = 24.679273 Lz       = 24.679273 Density  = 1.018975 
Volume   = 15031.318055 
---------------- Step  1260000 ----- CPU =    155.6076 (sec) ----------------
Time     = 6300000.000000 Temp     = 262.287686 Press    = 1337.775577 
PotEng   = -10.232179 KinEng   = 0.780303 Lx       = 24.607884 
Ly       = 24.607884 Lz       = 24.607884 Density  = 1.027869 
Volume   = 14901.253208 
---------------- Step  1270000 ----- CPU =    161.5994 (sec) ----------------
Time     = 6350000.000000 Temp     = 267.412271 Press    = 1158.253791 
PotEng   = -10.242462 KinEng   = 0.795548 Lx       = 24.656976 
Ly       = 24.656976 Lz       = 24.656976 Density  = 1.021742 
Volume   = 14990.615276 
---------------- Step  1280000 ----- CPU =    167.5786 (sec) ----------------
Time     = 6400000.000000 Temp     = 258.355471 Press    = 75.443425 
PotEng   = -10.233095 KinEng   = 0.768604 Lx       = 24.730298 
Ly       = 24.730298 Lz       = 24.730298 Density  = 1.012681 
Volume   = 15124.744384 
---------------- Step  1290000 ----- CPU =    173.5461 (sec) ----------------
Time     = 6450000.000000 Temp     = 275.156474 Press    = 211.965048 
PotEng   = -10.169821 KinEng   = 0.818587 Lx       = 24.679919 
Ly       = 24.679919 Lz       = 24.679919 Density  = 1.018895 
Volume   = 15032.499827 
---------------- Step  1300000 ----- CPU =    179.5160 (sec) ----------------
Time     = 6500000.000000 Temp     = 276.765552 Press    = 1902.737005 
PotEng   = -10.274081 KinEng   = 0.823374 Lx       = 24.627026 
Ly       = 24.627026 Lz       = 24.627026 Density  = 1.025474 
Volume   = 14936.055075 
---------------- Step  1310000 ----- CPU =    185.5132 (sec) ----------------
Time     = 6550000.000000 Temp     = 258.319841 Press    = 2116.127736 
PotEng   = -10.240967 KinEng   = 0.768498 Lx       = 24.595165 
Ly       = 24.595165 Lz       = 24.595165 Density  = 1.029464 
Volume   = 14878.159761 
---------------- Step  1320000 ----- CPU =    191.5205 (sec) ----------------
Time     = 6600000.000000 Temp     = 271.906753 Press    = 545.993749 
PotEng   = -10.286976 KinEng   = 0.808919 Lx       = 24.701421 
Ly       = 24.701421 Lz       = 24.701421 Density  = 1.016236 
Volume   = 15071.824582 
---------------- Step  1330000 ----- CPU =    197.4974 (sec) ----------------
Time     = 6650000.000000 Temp     = 258.541390 Press    = 1282.005546 
PotEng   = -10.203749 KinEng   = 0.769158 Lx       = 24.667588 
Ly       = 24.667588 Lz       = 24.667588 Density  = 1.020424 
Volume   = 15009.977748 
---------------- Step  1340000 ----- CPU =    203.4808 (sec) ----------------
Time     = 6700000.000000 Temp     = 278.791477 Press    = 1426.574854 
PotEng   = -10.247964 KinEng   = 0.829401 Lx       = 24.629424 
Ly       = 24.629424 Lz       = 24.629424 Density  = 1.025174 
Volume   = 14940.418306 
---------------- Step  1350000 ----- CPU =    209.4581 (sec) ----------------
Time     = 6750000.000000 Temp     = 285.243037 Press    = 609.417899 
PotEng   = -10.228773 KinEng   = 0.848595 Lx       = 24.700779 
Ly       = 24.700779 Lz       = 24.700779 Density  = 1.016316 
Volume   = 15070.649394 
---------------- Step  1360000 ----- CPU =    215.4159 (sec) ----------------
Time     = 6800000.000000 Temp     = 278.778408 Press    = 1311.018044 
PotEng   = -10.210090 KinEng   = 0.829362 Lx       = 24.737474 
Ly       = 24.737474 Lz       = 24.737474 Density  = 1.011800 
Volume   = 15137.914503 
---------------- Step  1370000 ----- CPU =    221.4173 (sec) ----------------
Time     = 6850000.000000 Temp     = 273.853714 Press    = 1985.714236 
PotEng   = -10.277468 KinEng   = 0.814712 Lx       = 24.604811 
Ly       = 24.604811 Lz       = 24.604811 Density  = 1.028254 
Volume   = 14895.671865 
---------------- Step  1380000 ----- CPU =    227.3628 (sec) ----------------
Time     = 6900000.000000 Temp     = 260.205206 Press    = 385.187229 
PotEng   = -10.265799 KinEng   = 0.774107 Lx       = 24.702322 
Ly       = 24.702322 Lz       = 24.702322 Density  = 1.016125 
Volume   = 15073.474005 
---------------- Step  1390000 ----- CPU =    233.3349 (sec) ----------------
Time     = 6950000.000000 Temp     = 251.779411 Press    = 2013.685117 
PotEng   = -10.248937 KinEng   = 0.749041 Lx       = 24.574399 
Ly       = 24.574399 Lz       = 24.574399 Density  = 1.032076 
Volume   = 14840.506225 
---------------- Step  1400000 ----- CPU =    239.2873 (sec) ----------------
Time     = 7000000.000000 Temp     = 257.742229 Press    = 483.569615 
PotEng   = -10.223685 KinEng   = 0.766780 Lx       = 24.649588 
Ly       = 24.649588 Lz       = 24.649588 Density  = 1.022661 
Volume   = 14977.144522 
---------------- Step  1410000 ----- CPU =    245.2563 (sec) ----------------
Time     = 7050000.000000 Temp     = 251.530075 Press    = 1173.295431 
PotEng   = -10.248376 KinEng   = 0.748299 Lx       = 24.676343 
Ly       = 24.676343 Lz       = 24.676343 Density  = 1.019338 
Volume   = 15025.965725 
---------------- Step  1420000 ----- CPU =    251.2432 (sec) ----------------
Time     = 7100000.000000 Temp     = 276.333433 Press    = 1254.861077 
PotEng   = -10.188705 KinEng   = 0.822089 Lx       = 24.704743 
Ly       = 24.704743 Lz       = 24.704743 Density  = 1.015826 
Volume   = 15077.904820 
---------------- Step  1430000 ----- CPU =    257.2133 (sec) ----------------
Time     = 7150000.000000 Temp     = 273.011141 Press    = 527.864788 
PotEng   = -10.225884 KinEng   = 0.812205 Lx       = 24.674138 
Ly       = 24.674138 Lz       = 24.674138 Density  = 1.019611 
Volume   = 15021.937547 
---------------- Step  1440000 ----- CPU =    263.2128 (sec) ----------------
Time     = 7200000.000000 Temp     = 273.275998 Press    = 415.279331 
PotEng   = -10.305363 KinEng   = 0.812993 Lx       = 24.728156 
Ly       = 24.728156 Lz       = 24.728156 Density  = 1.012944 
Volume   = 15120.813936 
---------------- Step  1450000 ----- CPU =    269.1786 (sec) ----------------
Time     = 7250000.000000 Temp     = 267.096743 Press    = 662.637227 
PotEng   = -10.258196 KinEng   = 0.794610 Lx       = 24.706513 
Ly       = 24.706513 Lz       = 24.706513 Density  = 1.015608 
Volume   = 15081.147106 
---------------- Step  1460000 ----- CPU =    275.1526 (sec) ----------------
Time     = 7300000.000000 Temp     = 259.380148 Press    = 1739.341378 
PotEng   = -10.274655 KinEng   = 0.771653 Lx       = 24.610092 
Ly       = 24.610092 Lz       = 24.610092 Density  = 1.027592 
Volume   = 14905.265899 
---------------- Step  1470000 ----- CPU =    281.0800 (sec) ----------------
Time     = 7350000.000000 Temp     = 282.093420 Press    = 1010.195041 
PotEng   = -10.278556 KinEng   = 0.839225 Lx       = 24.692936 
Ly       = 24.692936 Lz       = 24.692936 Density  = 1.017284 
Volume   = 15056.297288 
---------------- Step  1480000 ----- CPU =    287.0287 (sec) ----------------
Time     = 7400000.000000 Temp     = 275.962395 Press    = 35.195331 
PotEng   = -10.181626 KinEng   = 0.820985 Lx       = 24.669594 
Ly       = 24.669594 Lz       = 24.669594 Density  = 1.020175 
Volume   = 15013.639595 
---------------- Step  1490000 ----- CPU =    292.9848 (sec) ----------------
Time     = 7450000.000000 Temp     = 298.179649 Press    = 1213.582672 
PotEng   = -10.270331 KinEng   = 0.887081 Lx       = 24.670687 
Ly       = 24.670687 Lz       = 24.670687 Density  = 1.020039 
Volume   = 15015.635762 
---------------- Step  1500000 ----- CPU =    298.9997 (sec) ----------------
Time     = 7500000.000000 Temp     = 274.306085 Press    = 607.004642 
PotEng   = -10.192925 KinEng   = 0.816057 Lx       = 24.627167 
Ly       = 24.627167 Lz       = 24.627167 Density  = 1.025456 
Volume   = 14936.312390 
---------------- Step  1510000 ----- CPU =    304.9841 (sec) ----------------
Time     = 7550000.000000 Temp     = 269.178038 Press    = 984.015102 
PotEng   = -10.183395 KinEng   = 0.800801 Lx       = 24.638006 
Ly       = 24.638006 Lz       = 24.638006 Density  = 1.024104 
Volume   = 14956.041524 
---------------- Step  1520000 ----- CPU =    310.9593 (sec) ----------------
Time     = 7600000.000000 Temp     = 272.270868 Press    = -352.605843 
PotEng   = -10.243860 KinEng   = 0.810003 Lx       = 24.729528 
Ly       = 24.729528 Lz       = 24.729528 Density  = 1.012775 
Volume   = 15123.331752 
---------------- Step  1530000 ----- CPU =    316.9164 (sec) ----------------
Time     = 7650000.000000 Temp     = 282.119604 Press    = 1484.398910 
PotEng   = -10.173698 KinEng   = 0.839302 Lx       = 24.681456 
Ly       = 24.681456 Lz       = 24.681456 Density  = 1.018704 
Volume   = 15035.307958 
---------------- Step  1540000 ----- CPU =    322.8812 (sec) ----------------
Time     = 7700000.000000 Temp     = 266.821989 Press    = 2083.224668 
PotEng   = -10.249908 KinEng   = 0.793792 Lx       = 24.595803 
Ly       = 24.595803 Lz       = 24.595803 Density  = 1.029384 
Volume   = 14879.318272 
---------------- Step  1550000 ----- CPU =    328.8882 (sec) ----------------
Time     = 7750000.000000 Temp     = 259.822469 Press    = 164.700888 
PotEng   = -10.264429 KinEng   = 0.772969 Lx       = 24.703648 
Ly       = 24.703648 Lz       = 24.703648 Density  = 1.015962 
Volume   = 15075.900111 
---------------- Step  1560000 ----- CPU =    334.8746 (sec) ----------------
Time     = 7800000.000000 Temp     = 272.375491 Press    = 74.087545 
PotEng   = -10.234760 KinEng   = 0.810314 Lx       = 24.694272 
Ly       = 24.694272 Lz       = 24.694272 Density  = 1.017119 
Volume   = 15058.741146 
---------------- Step  1570000 ----- CPU =    340.9174 (sec) ----------------
Time     = 7850000.000000 Temp     = 273.157534 Press    = 1468.611204 
PotEng   = -10.190685 KinEng   = 0.812640 Lx       = 24.640289 
Ly       = 24.640289 Lz       = 24.640289 Density  = 1.023819 
Volume   = 14960.200570 
---------------- Step  1580000 ----- CPU =    346.8937 (sec) ----------------
Time     = 7900000.000000 Temp     = 258.345557 Press    = 1046.611431 
PotEng   = -10.249925 KinEng   = 0.768575 Lx       = 24.639982 
Ly       = 24.639982 Lz       = 24.639982 Density  = 1.023857 
Volume   = 14959.640391 
---------------- Step  1590000 ----- CPU =    352.8956 (sec) ----------------
Time     = 7950000.000000 Temp     = 263.046249 Press    = 1115.663841 
PotEng   = -10.293316 KinEng   = 0.782559 Lx       = 24.689056 
Ly       = 24.689056 Lz       = 24.689056 Density  = 1.017764 
Volume   = 15049.201171 
---------------- Step  1600000 ----- CPU =    358.8492 (sec) ----------------
Time     = 8000000.000000 Temp     = 288.156134 Press    = 676.284152 
PotEng   = -10.250136 KinEng   = 0.857261 Lx       = 24.655708 
Ly       = 24.655708 Lz       = 24.655708 Density  = 1.021899 
Volume   = 14988.301082 
---------------- Step  1610000 ----- CPU =    364.8374 (sec) ----------------
Time     = 8050000.000000 Temp     = 274.870147 Press    = 1425.485456 
PotEng   = -10.218043 KinEng   = 0.817735 Lx       = 24.710636 
Ly       = 24.710636 Lz       = 24.710636 Density  = 1.015100 
Volume   = 15088.698414 
---------------- Step  1620000 ----- CPU =    370.8335 (sec) ----------------
Time     = 8100000.000000 Temp     = 258.809322 Press    = 846.765881 
PotEng   = -10.265831 KinEng   = 0.769955 Lx       = 24.671842 
Ly       = 24.671842 Lz       = 24.671842 Density  = 1.019896 
Volume   = 15017.745224 
---------------- Step  1630000 ----- CPU =    376.8345 (sec) ----------------
Time     = 8150000.000000 Temp     = 267.635578 Press    = 1536.641972 
PotEng   = -10.185813 KinEng   = 0.796213 Lx       = 24.639410 
Ly       = 24.639410 Lz       = 24.639410 Density  = 1.023928 
Volume   = 14958.598327 
---------------- Step  1640000 ----- CPU =    382.8470 (sec) ----------------
Time     = 8200000.000000 Temp     = 264.737014 Press    = 674.194734 
PotEng   = -10.272437 KinEng   = 0.787589 Lx       = 24.703628 
Ly       = 24.703628 Lz       = 24.703628 Density  = 1.015964 
Volume   = 15075.863825 
---------------- Step  1650000 ----- CPU =    388.8245 (sec) ----------------
Time     = 8250000.000000 Temp     = 278.991084 Press    = 720.940136 
PotEng   = -10.204058 KinEng   = 0.829995 Lx       = 24.735913 
Ly       = 24.735913 Lz       = 24.735913 Density  = 1.011991 
Volume   = 15135.048733 
---------------- Step  1660000 ----- CPU =    394.8293 (sec) ----------------
Time     = 8300000.000000 Temp     = 260.408753 Press    = 1663.082092 
PotEng   = -10.246954 KinEng   = 0.774713 Lx       = 24.700843 
Ly       = 24.700843 Lz       = 24.700843 Density  = 1.016308 
Volume   = 15070.765465 
---------------- Step  1670000 ----- CPU =    400.8045 (sec) ----------------
Time     = 8350000.000000 Temp     = 294.858577 Press    = 1910.280817 
PotEng   = -10.254164 KinEng   = 0.877201 Lx       = 24.577215 
Ly       = 24.577215 Lz       = 24.577215 Density  = 1.031722 
Volume   = 14845.607971 
---------------- Step  1680000 ----- CPU =    406.8420 (sec) ----------------
Time     = 8400000.000000 Temp     = 255.981512 Press    = 423.803616 
PotEng   = -10.263469 KinEng   = 0.761542 Lx       = 24.665867 
Ly       = 24.665867 Lz       = 24.665867 Density  = 1.020637 
Volume   = 15006.836879 
---------------- Step  1690000 ----- CPU =    412.8180 (sec) ----------------
Time     = 8450000.000000 Temp     = 264.225820 Press    = 1557.373878 
PotEng   = -10.255071 KinEng   = 0.786069 Lx       = 24.579944 
Ly       = 24.579944 Lz       = 24.579944 Density  = 1.031378 
Volume   = 14850.555153 
---------------- Step  1700000 ----- CPU =    418.7991 (sec) ----------------
Time     = 8500000.000000 Temp     = 273.448551 Press    = 1958.250605 
PotEng   = -10.195797 KinEng   = 0.813506 Lx       = 24.716097 
Ly       = 24.716097 Lz       = 24.716097 Density  = 1.014427 
Volume   = 15098.703589 
---------------- Step  1710000 ----- CPU =    424.7876 (sec) ----------------
Time     = 8550000.000000 Temp     = 267.268824 Press    = 535.455584 
PotEng   = -10.266921 KinEng   = 0.795122 Lx       = 24.617792 
Ly       = 24.617792 Lz       = 24.617792 Density  = 1.026628 
Volume   = 14919.259754 
---------------- Step  1720000 ----- CPU =    430.7778 (sec) ----------------
Time     = 8600000.000000 Temp     = 266.052989 Press    = 55.761213 
PotEng   = -10.256171 KinEng   = 0.791504 Lx       = 24.703484 
Ly       = 24.703484 Lz       = 24.703484 Density  = 1.015982 
Volume   = 15075.601222 
---------------- Step  1730000 ----- CPU =    436.7869 (sec) ----------------
Time     = 8650000.000000 Temp     = 283.219579 Press    = 2234.292456 
PotEng   = -10.164248 KinEng   = 0.842575 Lx       = 24.635077 
Ly       = 24.635077 Lz       = 24.635077 Density  = 1.024469 
Volume   = 14950.709033 
---------------- Step  1740000 ----- CPU =    442.7432 (sec) ----------------
Time     = 8700000.000000 Temp     = 277.868185 Press    = 1086.898074 
PotEng   = -10.196420 KinEng   = 0.826655 Lx       = 24.642804 
Ly       = 24.642804 Lz       = 24.642804 Density  = 1.023505 
Volume   = 14964.781924 
---------------- Step  1750000 ----- CPU =    448.6986 (sec) ----------------
Time     = 8750000.000000 Temp     = 271.032833 Press    = 191.809009 
PotEng   = -10.152760 KinEng   = 0.806319 Lx       = 24.755419 
Ly       = 24.755419 Lz       = 24.755419 Density  = 1.009601 
Volume   = 15170.882904 
---------------- Step  1760000 ----- CPU =    454.6796 (sec) ----------------
Time     = 8800000.000000 Temp     = 281.449649 Press    = 1403.682296 
PotEng   = -10.272369 KinEng   = 0.837309 Lx       = 24.665637 
Ly       = 24.665637 Lz       = 24.665637 Density  = 1.020666 
Volume   = 15006.417413 
---------------- Step  1770000 ----- CPU =    460.6316 (sec) ----------------
Time     = 8850000.000000 Temp     = 268.274909 Press    = 2290.064122 
PotEng   = -10.218255 KinEng   = 0.798115 Lx       = 24.592641 
Ly       = 24.592641 Lz       = 24.592641 Density  = 1.029781 
Volume   = 14873.580332 
---------------- Step  1780000 ----- CPU =    466.5808 (sec) ----------------
Time     = 8900000.000000 Temp     = 278.182725 Press    = 1403.232316 
PotEng   = -10.254120 KinEng   = 0.827590 Lx       = 24.697637 
Ly       = 24.697637 Lz       = 24.697637 Density  = 1.016704 
Volume   = 15064.897585 
---------------- Step  1790000 ----- CPU =    472.5737 (sec) ----------------
Time     = 8950000.000000 Temp     = 274.713547 Press    = 0.385936 
PotEng   = -10.230076 KinEng   = 0.817270 Lx       = 24.758327 
Ly       = 24.758327 Lz       = 24.758327 Density  = 1.009245 
Volume   = 15176.228763 
---------------- Step  1800000 ----- CPU =    478.5376 (sec) ----------------
Time     = 9000000.000000 Temp     = 276.668734 Press    = 797.680024 
PotEng   = -10.207654 KinEng   = 0.823086 Lx       = 24.695820 
Ly       = 24.695820 Lz       = 24.695820 Density  = 1.016928 
Volume   = 15061.574198 
---------------- Step  1810000 ----- CPU =    484.5622 (sec) ----------------
Time     = 9050000.000000 Temp     = 268.878847 Press    = 527.284061 
PotEng   = -10.289469 KinEng   = 0.799911 Lx       = 24.686293 
Ly       = 24.686293 Lz       = 24.686293 Density  = 1.018106 
Volume   = 15044.148972 
---------------- Step  1820000 ----- CPU =    490.5279 (sec) ----------------
Time     = 9100000.000000 Temp     = 274.399928 Press    = 1374.553820 
PotEng   = -10.318830 KinEng   = 0.816337 Lx       = 24.691593 
Ly       = 24.691593 Lz       = 24.691593 Density  = 1.017450 
Volume   = 15053.840959 
---------------- Step  1830000 ----- CPU =    496.5527 (sec) ----------------
Time     = 9150000.000000 Temp     = 279.185216 Press    = 1565.997311 
PotEng   = -10.198569 KinEng   = 0.830573 Lx       = 24.582685 
Ly       = 24.582685 Lz       = 24.582685 Density  = 1.031033 
Volume   = 14855.523647 
---------------- Step  1840000 ----- CPU =    502.5009 (sec) ----------------
Time     = 9200000.000000 Temp     = 262.970383 Press    = -17.128808 
PotEng   = -10.202789 KinEng   = 0.782334 Lx       = 24.771365 
Ly       = 24.771365 Lz       = 24.771365 Density  = 1.007652 
Volume   = 15200.218363 
---------------- Step  1850000 ----- CPU =    508.4561 (sec) ----------------
Time     = 9250000.000000 Temp     = 277.014469 Press    = 2084.763698 
PotEng   = -10.190765 KinEng   = 0.824115 Lx       = 24.654937 
Ly       = 24.654937 Lz       = 24.654937 Density  = 1.021995 
Volume   = 14986.896370 
---------------- Step  1860000 ----- CPU =    514.3926 (sec) ----------------
Time     = 9300000.000000 Temp     = 263.946110 Press    = 713.930225 
PotEng   = -10.219719 KinEng   = 0.785237 Lx       = 24.654819 
Ly       = 24.654819 Lz       = 24.654819 Density  = 1.022010 
Volume   = 14986.681634 
---------------- Step  1870000 ----- CPU =    520.3362 (sec) ----------------
Time     = 9350000.000000 Temp     = 253.567574 Press    = 1568.242660 
PotEng   = -10.236594 KinEng   = 0.754361 Lx       = 24.704143 
Ly       = 24.704143 Lz       = 24.704143 Density  = 1.015900 
Volume   = 15076.806233 
---------------- Step  1880000 ----- CPU =    526.3243 (sec) ----------------
Time     = 9400000.000000 Temp     = 263.759386 Press    = 853.424092 
PotEng   = -10.226708 KinEng   = 0.784681 Lx       = 24.663964 
Ly       = 24.663964 Lz       = 24.663964 Density  = 1.020873 
Volume   = 15003.362894 
---------------- Step  1890000 ----- CPU =    532.3022 (sec) ----------------
Time     = 9450000.000000 Temp     = 266.182561 Press    = 2032.573659 
PotEng   = -10.265272 KinEng   = 0.791890 Lx       = 24.650214 
Ly       = 24.650214 Lz       = 24.650214 Density  = 1.022583 
Volume   = 14978.283997 
---------------- Step  1900000 ----- CPU =    538.2552 (sec) ----------------
Time     = 9500000.000000 Temp     = 269.982543 Press    = 1518.115735 
PotEng   = -10.272383 KinEng   = 0.803195 Lx       = 24.620857 
Ly       = 24.620857 Lz       = 24.620857 Density  = 1.026245 
Volume   = 14924.832943 
---------------- Step  1910000 ----- CPU =    544.2543 (sec) ----------------
Time     = 9550000.000000 Temp     = 257.747748 Press    = -373.547791 
PotEng   = -10.255255 KinEng   = 0.766796 Lx       = 24.760511 
Ly       = 24.760511 Lz       = 24.760511 Density  = 1.008978 
Volume   = 15180.245443 
---------------- Step  1920000 ----- CPU =    550.2576 (sec) ----------------
Time     = 9600000.000000 Temp     = 256.808975 Press    = 813.660381 
PotEng   = -10.255300 KinEng   = 0.764004 Lx       = 24.680345 
Ly       = 24.680345 Lz       = 24.680345 Density  = 1.018842 
Volume   = 15033.277281 
---------------- Step  1930000 ----- CPU =    556.2121 (sec) ----------------
Time     = 9650000.000000 Temp     = 278.941481 Press    = 1968.355191 
PotEng   = -10.206966 KinEng   = 0.829848 Lx       = 24.629362 
Ly       = 24.629362 Lz       = 24.629362 Density  = 1.025182 
Volume   = 14940.304973 
---------------- Step  1940000 ----- CPU =    562.2084 (sec) ----------------
Time     = 9700000.000000 Temp     = 280.095078 Press    = 1635.319585 
PotEng   = -10.207517 KinEng   = 0.833280 Lx       = 24.587521 
Ly       = 24.587521 Lz       = 24.587521 Density  = 1.030425 
Volume   = 14864.292376 
---------------- Step  1950000 ----- CPU =    568.2119 (sec) ----------------
Time     = 9750000.000000 Temp     = 262.180878 Press    = 424.296055 
PotEng   = -10.259109 KinEng   = 0.779985 Lx       = 24.659233 
Ly       = 24.659233 Lz       = 24.659233 Density  = 1.021461 
Volume   = 14994.730579 
---------------- Step  1960000 ----- CPU =    574.1983 (sec) ----------------
Time     = 9800000.000000 Temp     = 247.089655 Press    = 2334.925038 
PotEng   = -10.248191 KinEng   = 0.735089 Lx       = 24.580272 
Ly       = 24.580272 Lz       = 24.580272 Density  = 1.031337 
Volume   = 14851.148808 
---------------- Step  1970000 ----- CPU =    580.1934 (sec) ----------------
Time     = 9850000.000000 Temp     = 284.949684 Press    = 1150.586634 
PotEng   = -10.215675 KinEng   = 0.847722 Lx       = 24.646898 
Ly       = 24.646898 Lz       = 24.646898 Density  = 1.022996 
Volume   = 14972.239926 
---------------- Step  1980000 ----- CPU =    586.1641 (sec) ----------------
Time     = 9900000.000000 Temp     = 285.062879 Press    = 91.549059 
PotEng   = -10.245332 KinEng   = 0.848059 Lx       = 24.790785 
Ly       = 24.790785 Lz       = 24.790785 Density  = 1.005286 
Volume   = 15235.996455 
---------------- Step  1990000 ----- CPU =    592.1293 (sec) ----------------
Time     = 9950000.000000 Temp     = 285.303116 Press    = 1152.453650 
PotEng   = -10.161144 KinEng   = 0.848773 Lx       = 24.680785 
Ly       = 24.680785 Lz       = 24.680785 Density  = 1.018787 
Volume   = 15034.082296 
---------------- Step  2000000 ----- CPU =    598.0914 (sec) ----------------
Time     = 10000000.000000 Temp     = 270.204256 Press    = 437.308832 
PotEng   = -10.221643 KinEng   = 0.803854 Lx       = 24.681905 
Ly       = 24.681905 Lz       = 24.681905 Density  = 1.018649 
Volume   = 15036.129151 
---------------- Step  2010000 ----- CPU =    604.1136 (sec) ----------------
Time     = 10050000.000000 Temp     = 270.672347 Press    = 2.124446 
PotEng   = -10.163314 KinEng   = 0.805247 Lx       = 24.719071 
Ly       = 24.719071 Lz       = 24.719071 Density  = 1.014061 
Volume   = 15104.154493 
---------------- Step  2020000 ----- CPU =    610.0835 (sec) ----------------
Time     = 10100000.000000 Temp     = 276.141423 Press    = 1682.378998 
PotEng   = -10.296561 KinEng   = 0.821517 Lx       = 24.649928 
Ly       = 24.649928 Lz       = 24.649928 Density  = 1.022618 
Volume   = 14977.764186 
---------------- Step  2030000 ----- CPU =    616.0333 (sec) ----------------
Time     = 10150000.000000 Temp     = 270.614813 Press    = 367.925070 
PotEng   = -10.325201 KinEng   = 0.805076 Lx       = 24.676507 
Ly       = 24.676507 Lz       = 24.676507 Density  = 1.019317 
Volume   = 15026.265844 
---------------- Step  2040000 ----- CPU =    622.0331 (sec) ----------------
Time     = 10200000.000000 Temp     = 279.579242 Press    = 453.242595 
PotEng   = -10.231176 KinEng   = 0.831745 Lx       = 24.775945 
Ly       = 24.775945 Lz       = 24.775945 Density  = 1.007094 
Volume   = 15208.651120 
---------------- Step  2050000 ----- CPU =    628.0005 (sec) ----------------
Time     = 10250000.000000 Temp     = 266.560175 Press    = 1272.360988 
PotEng   = -10.273165 KinEng   = 0.793013 Lx       = 24.677819 
Ly       = 24.677819 Lz       = 24.677819 Density  = 1.019155 
Volume   = 15028.662230 
---------------- Step  2060000 ----- CPU =    633.9625 (sec) ----------------
Time     = 10300000.000000 Temp     = 271.229788 Press    = 608.693322 
PotEng   = -10.183283 KinEng   = 0.806905 Lx       = 24.718349 
Ly       = 24.718349 Lz       = 24.718349 Density  = 1.014150 
Volume   = 15102.831081 
---------------- Step  2070000 ----- CPU =    639.9419 (sec) ----------------
Time     = 10350000.000000 Temp     = 267.180522 Press    = 1269.097626 
PotEng   = -10.215879 KinEng   = 0.794859 Lx       = 24.677340 
Ly       = 24.677340 Lz       = 24.677340 Density  = 1.019214 
Volume   = 15027.786661 
---------------- Step  2080000 ----- CPU =    645.9343 (sec) ----------------
Time     = 10400000.000000 Temp     = 284.131149 Press    = -70.431894 
PotEng   = -10.259081 KinEng   = 0.845287 Lx       = 24.761363 
Ly       = 24.761363 Lz       = 24.761363 Density  = 1.008874 
Volume   = 15181.813512 
---------------- Step  2090000 ----- CPU =    651.9158 (sec) ----------------
Time     = 10450000.000000 Temp     = 281.924308 Press    = 1840.311523 
PotEng   = -10.227322 KinEng   = 0.838721 Lx       = 24.564788 
Ly       = 24.564788 Lz       = 24.564788 Density  = 1.033288 
Volume   = 14823.101454 
---------------- Step  2100000 ----- CPU =    657.9094 (sec) ----------------
Time     = 10500000.000000 Temp     = 262.157139 Press    = 2023.938961 
PotEng   = -10.216043 KinEng   = 0.779914 Lx       = 24.600327 
Ly       = 24.600327 Lz       = 24.600327 Density  = 1.028816 
Volume   = 14887.529922 
---------------- Step  2110000 ----- CPU =    663.8770 (sec) ----------------
Time     = 10550000.000000 Temp     = 266.174127 Press    = 1061.931850 
PotEng   = -10.297916 KinEng   = 0.791865 Lx       = 24.689470 
Ly       = 24.689470 Lz       = 24.689470 Density  = 1.017713 
Volume   = 15049.958100 
---------------- Step  2120000 ----- CPU =    669.8541 (sec) ----------------
Time     = 10600000.000000 Temp     = 258.657571 Press    = 851.258142 
PotEng   = -10.343869 KinEng   = 0.769503 Lx       = 24.638146 
Ly       = 24.638146 Lz       = 24.638146 Density  = 1.024086 
Volume   = 14956.296747 
---------------- Step  2130000 ----- CPU =    675.8060 (sec) ----------------
Time     = 10650000.000000 Temp     = 268.884541 Press    = 1591.048511 
PotEng   = -10.278255 KinEng   = 0.799928 Lx       = 24.586330 
Ly       = 24.586330 Lz       = 24.586330 Density  = 1.030575 
Volume   = 14862.131669 
---------------- Step  2140000 ----- CPU =    681.7801 (sec) ----------------
Time     = 10700000.000000 Temp     = 275.069211 Press    = 536.446814 
PotEng   = -10.300512 KinEng   = 0.818328 Lx       = 24.662141 
Ly       = 24.662141 Lz       = 24.662141 Density  = 1.021100 
Volume   = 15000.037308 
---------------- Step  2150000 ----- CPU =    687.7609 (sec) ----------------
Time     = 10750000.000000 Temp     = 264.565180 Press    = 1797.087822 
PotEng   = -10.156622 KinEng   = 0.787078 Lx       = 24.697771 
Ly       = 24.697771 Lz       = 24.697771 Density  = 1.016687 
Volume   = 15065.144362 
---------------- Step  2160000 ----- CPU =    693.7480 (sec) ----------------
Time     = 10800000.000000 Temp     = 261.594386 Press    = 1426.774773 
PotEng   = -10.236528 KinEng   = 0.778240 Lx       = 24.686868 
Ly       = 24.686868 Lz       = 24.686868 Density  = 1.018035 
Volume   = 15045.201267 
---------------- Step  2170000 ----- CPU =    699.7019 (sec) ----------------
Time     = 10850000.000000 Temp     = 262.807185 Press    = 395.741322 
PotEng   = -10.218441 KinEng   = 0.781848 Lx       = 24.677474 
Ly       = 24.677474 Lz       = 24.677474 Density  = 1.019198 
Volume   = 15028.032419 
---------------- Step  2180000 ----- CPU =    705.7159 (sec) ----------------
Time     = 10900000.000000 Temp     = 273.399990 Press    = 1160.491397 
PotEng   = -10.270313 KinEng   = 0.813362 Lx       = 24.623913 
Ly       = 24.623913 Lz       = 24.623913 Density  = 1.025863 
Volume   = 14930.392036 
---------------- Step  2190000 ----- CPU =    711.7131 (sec) ----------------
Time     = 10950000.000000 Temp     = 295.558527 Press    = 996.749543 
PotEng   = -10.304579 KinEng   = 0.879283 Lx       = 24.596852 
Ly       = 24.596852 Lz       = 24.596852 Density  = 1.029252 
Volume   = 14881.221890 
---------------- Step  2200000 ----- CPU =    717.7301 (sec) ----------------
Time     = 11000000.000000 Temp     = 283.814102 Press    = -204.806753 
PotEng   = -10.260898 KinEng   = 0.844344 Lx       = 24.696066 
Ly       = 24.696066 Lz       = 24.696066 Density  = 1.016898 
Volume   = 15062.023139 
---------------- Step  2210000 ----- CPU =    723.7744 (sec) ----------------
Time     = 11050000.000000 Temp     = 280.584425 Press    = 480.771588 
PotEng   = -10.166303 KinEng   = 0.834735 Lx       = 24.694000 
Ly       = 24.694000 Lz       = 24.694000 Density  = 1.017153 
Volume   = 15058.244294 
---------------- Step  2220000 ----- CPU =    729.7423 (sec) ----------------
Time     = 11100000.000000 Temp     = 271.806612 Press    = 536.399350 
PotEng   = -10.260064 KinEng   = 0.808621 Lx       = 24.646535 
Ly       = 24.646535 Lz       = 24.646535 Density  = 1.023041 
Volume   = 14971.579787 
---------------- Step  2230000 ----- CPU =    735.6954 (sec) ----------------
Time     = 11150000.000000 Temp     = 252.816129 Press    = 1334.845205 
PotEng   = -10.229987 KinEng   = 0.752125 Lx       = 24.687088 
Ly       = 24.687088 Lz       = 24.687088 Density  = 1.018007 
Volume   = 15045.602486 
---------------- Step  2240000 ----- CPU =    741.6961 (sec) ----------------
Time     = 11200000.000000 Temp     = 271.890228 Press    = 183.749212 
PotEng   = -10.310680 KinEng   = 0.808870 Lx       = 24.747697 
Ly       = 24.747697 Lz       = 24.747697 Density  = 1.010546 
Volume   = 15156.689278 
---------------- Step  2250000 ----- CPU =    747.6523 (sec) ----------------
Time     = 11250000.000000 Temp     = 269.231758 Press    = 819.002431 
PotEng   = -10.194488 KinEng   = 0.800961 Lx       = 24.685594 
Ly       = 24.685594 Lz       = 24.685594 Density  = 1.018192 
Volume   = 15042.871697 
---------------- Step  2260000 ----- CPU =    753.6214 (sec) ----------------
Time     = 11300000.000000 Temp     = 275.373027 Press    = 1099.661930 
PotEng   = -10.265448 KinEng   = 0.819231 Lx       = 24.687851 
Ly       = 24.687851 Lz       = 24.687851 Density  = 1.017913 
Volume   = 15046.998439 
---------------- Step  2270000 ----- CPU =    759.6300 (sec) ----------------
Time     = 11350000.000000 Temp     = 275.347856 Press    = 742.125217 
PotEng   = -10.230168 KinEng   = 0.819157 Lx       = 24.754563 
Ly       = 24.754563 Lz       = 24.754563 Density  = 1.009705 
Volume   = 15169.309079 
---------------- Step  2280000 ----- CPU =    765.5841 (sec) ----------------
Time     = 11400000.000000 Temp     = 267.921954 Press    = 1161.536429 
PotEng   = -10.239489 KinEng   = 0.797065 Lx       = 24.665430 
Ly       = 24.665430 Lz       = 24.665430 Density  = 1.020691 
Volume   = 15006.039429 
---------------- Step  2290000 ----- CPU =    771.5639 (sec) ----------------
Time     = 11450000.000000 Temp     = 273.697681 Press    = 755.844233 
PotEng   = -10.207834 KinEng   = 0.814247 Lx       = 24.714433 
Ly       = 24.714433 Lz       = 24.714433 Density  = 1.014632 
Volume   = 15095.654119 
---------------- Step  2300000 ----- CPU =    777.5887 (sec) ----------------
Time     = 11500000.000000 Temp     = 271.517761 Press    = 1342.824021 
PotEng   = -10.278693 KinEng   = 0.807762 Lx       = 24.626209 
Ly       = 24.626209 Lz       = 24.626209 Density  = 1.025576 
Volume   = 14934.568617 
---------------- Step  2310000 ----- CPU =    783.6437 (sec) ----------------
Time     = 11550000.000000 Temp     = 252.175272 Press    = 130.731713 
PotEng   = -10.227105 KinEng   = 0.750218 Lx       = 24.748928 
Ly       = 24.748928 Lz       = 24.748928 Density  = 1.010395 
Volume   = 15158.951616 
---------------- Step  2320000 ----- CPU =    789.6550 (sec) ----------------
Time     = 11600000.000000 Temp     = 257.662608 Press    = 1377.170587 
PotEng   = -10.252293 KinEng   = 0.766543 Lx       = 24.555766 
Ly       = 24.555766 Lz       = 24.555766 Density  = 1.034428 
Volume   = 14806.773511 
---------------- Step  2330000 ----- CPU =    795.6798 (sec) ----------------
Time     = 11650000.000000 Temp     = 278.961677 Press    = 1157.494491 
PotEng   = -10.248850 KinEng   = 0.829908 Lx       = 24.687099 
Ly       = 24.687099 Lz       = 24.687099 Density  = 1.018006 
Volume   = 15045.623860 
---------------- Step  2340000 ----- CPU =    801.6701 (sec) ----------------
Time     = 11700000.000000 Temp     = 273.571533 Press    = 217.586354 
PotEng   = -10.201135 KinEng   = 0.813872 Lx       = 24.662961 
Ly       = 24.662961 Lz       = 24.662961 Density  = 1.020998 
Volume   = 15001.532821 
---------------- Step  2350000 ----- CPU =    807.6281 (sec) ----------------
Time     = 11750000.000000 Temp     = 274.480543 Press    = 375.551379 
PotEng   = -10.277133 KinEng   = 0.816576 Lx       = 24.687078 
Ly       = 24.687078 Lz       = 24.687078 Density  = 1.018009 
Volume   = 15045.584274 
---------------- Step  2360000 ----- CPU =    813.6002 (sec) ----------------
Time     = 11800000.000000 Temp     = 268.664803 Press    = -143.713562 
PotEng   = -10.200207 KinEng   = 0.799275 Lx       = 24.633032 
Ly       = 24.633032 Lz       = 24.633032 Density  = 1.024724 
Volume   = 14946.985245 
---------------- Step  2370000 ----- CPU =    819.6058 (sec) ----------------
Time     = 11850000.000000 Temp     = 270.789763 Press    = 1178.055993 
PotEng   = -10.217688 KinEng   = 0.805596 Lx       = 24.657878 
Ly       = 24.657878 Lz       = 24.657878 Density  = 1.021629 
Volume   = 14992.259648 
---------------- Step  2380000 ----- CPU =    825.6468 (sec) ----------------
Time     = 11900000.000000 Temp     = 272.720863 Press    = 402.333214 
PotEng   = -10.240283 KinEng   = 0.811341 Lx       = 24.681504 
Ly       = 24.681504 Lz       = 24.681504 Density  = 1.018699 
Volume   = 15035.395184 
---------------- Step  2390000 ----- CPU =    831.6425 (sec) ----------------
Time     = 11950000.000000 Temp     = 251.121971 Press    = -70.191402 
PotEng   = -10.291166 KinEng   = 0.747085 Lx       = 24.754436 
Ly       = 24.754436 Lz       = 24.754436 Density  = 1.009721 
Volume   = 15169.075913 
---------------- Step  2400000 ----- CPU =    837.5901 (sec) ----------------
Time     = 12000000.000000 Temp     = 262.434046 Press    = 1276.690636 
PotEng   = -10.265110 KinEng   = 0.780738 Lx       = 24.645782 
Ly       = 24.645782 Lz       = 24.645782 Density  = 1.023134 
Volume   = 14970.207993 
---------------- Step  2410000 ----- CPU =    843.5623 (sec) ----------------
Time     = 12050000.000000 Temp     = 270.874797 Press    = 757.232003 
PotEng   = -10.241260 KinEng   = 0.805849 Lx       = 24.705128 
Ly       = 24.705128 Lz       = 24.705128 Density  = 1.015779 
Volume   = 15078.609679 
---------------- Step  2420000 ----- CPU =    849.5528 (sec) ----------------
Time     = 12100000.000000 Temp     = 272.271332 Press    = -268.101865 
PotEng   = -10.161500 KinEng   = 0.810004 Lx       = 24.732184 
Ly       = 24.732184 Lz       = 24.732184 Density  = 1.012449 
Volume   = 15128.205115 
---------------- Step  2430000 ----- CPU =    855.5253 (sec) ----------------
Time     = 12150000.000000 Temp     = 269.588430 Press    = 1843.275937 
PotEng   = -10.297705 KinEng   = 0.802022 Lx       = 24.593032 
Ly       = 24.593032 Lz       = 24.593032 Density  = 1.029732 
Volume   = 14874.289580 
---------------- Step  2440000 ----- CPU =    861.4843 (sec) ----------------
Time     = 12200000.000000 Temp     = 282.094152 Press    = -10.592996 
PotEng   = -10.281665 KinEng   = 0.839227 Lx       = 24.767214 
Ly       = 24.767214 Lz       = 24.767214 Density  = 1.008159 
Volume   = 15192.578606 
---------------- Step  2450000 ----- CPU =    867.4435 (sec) ----------------
Time     = 12250000.000000 Temp     = 272.490358 Press    = 1206.290026 
PotEng   = -10.211929 KinEng   = 0.810656 Lx       = 24.672798 
Ly       = 24.672798 Lz       = 24.672798 Density  = 1.019777 
Volume   = 15019.490082 
---------------- Step  2460000 ----- CPU =    873.3995 (sec) ----------------
Time     = 12300000.000000 Temp     = 269.039401 Press    = -0.146666 
PotEng   = -10.184648 KinEng   = 0.800389 Lx       = 24.650114 
Ly       = 24.650114 Lz       = 24.650114 Density  = 1.022595 
Volume   = 14978.103253 
---------------- Step  2470000 ----- CPU =    879.4090 (sec) ----------------
Time     = 12350000.000000 Temp     = 260.495875 Press    = 1434.827308 
PotEng   = -10.257608 KinEng   = 0.774972 Lx       = 24.595170 
Ly       = 24.595170 Lz       = 24.595170 Density  = 1.029464 
Volume   = 14878.169232 
---------------- Step  2480000 ----- CPU =    885.3876 (sec) ----------------
Time     = 12400000.000000 Temp     = 262.361203 Press    = 1840.584560 
PotEng   = -10.190534 KinEng   = 0.780521 Lx       = 24.635545 
Ly       = 24.635545 Lz       = 24.635545 Density  = 1.024410 
Volume   = 14951.561186 
---------------- Step  2490000 ----- CPU =    891.3802 (sec) ----------------
Time     = 12450000.000000 Temp     = 258.224191 Press    = 148.944432 
PotEng   = -10.264408 KinEng   = 0.768214 Lx       = 24.653623 
Ly       = 24.653623 Lz       = 24.653623 Density  = 1.022158 
Volume   = 14984.500673 
---------------- Step  2500000 ----- CPU =    897.3468 (sec) ----------------
Time     = 12500000.000000 Temp     = 266.693479 Press    = 1236.324744 
PotEng   = -10.271232 KinEng   = 0.793410 Lx       = 24.629617 
Ly       = 24.629617 Lz       = 24.629617 Density  = 1.025150 
Volume   = 14940.769145 
---------------- Step  2510000 ----- CPU =    903.3250 (sec) ----------------
Time     = 12550000.000000 Temp     = 268.403385 Press    = 666.238517 
PotEng   = -10.277360 KinEng   = 0.798497 Lx       = 24.726574 
Ly       = 24.726574 Lz       = 24.726574 Density  = 1.013138 
Volume   = 15117.912195 
---------------- Step  2520000 ----- CPU =    909.3149 (sec) ----------------
Time     = 12600000.000000 Temp     = 276.586271 Press    = -273.222211 
PotEng   = -10.237265 KinEng   = 0.822841 Lx       = 24.694268 
Ly       = 24.694268 Lz       = 24.694268 Density  = 1.017120 
Volume   = 15058.734863 
---------------- Step  2530000 ----- CPU =    915.3173 (sec) ----------------
Time     = 12650000.000000 Temp     = 282.311984 Press    = 358.095690 
PotEng   = -10.213580 KinEng   = 0.839875 Lx       = 24.734148 
Ly       = 24.734148 Lz       = 24.734148 Density  = 1.012208 
Volume   = 15131.809764 
---------------- Step  2540000 ----- CPU =    921.2839 (sec) ----------------
Time     = 12700000.000000 Temp     = 287.201996 Press    = 169.039447 
PotEng   = -10.216195 KinEng   = 0.854423 Lx       = 24.716896 
Ly       = 24.716896 Lz       = 24.716896 Density  = 1.014329 
Volume   = 15100.168642 
---------------- Step  2550000 ----- CPU =    927.2847 (sec) ----------------
Time     = 12750000.000000 Temp     = 289.605774 Press    = 1152.504288 
PotEng   = -10.173219 KinEng   = 0.861574 Lx       = 24.585030 
Ly       = 24.585030 Lz       = 24.585030 Density  = 1.030738 
Volume   = 14859.774147 
---------------- Step  2560000 ----- CPU =    933.2588 (sec) ----------------
Time     = 12800000.000000 Temp     = 272.186954 Press    = 332.727723 
PotEng   = -10.261752 KinEng   = 0.809753 Lx       = 24.689335 
Ly       = 24.689335 Lz       = 24.689335 Density  = 1.017729 
Volume   = 15049.711487 
---------------- Step  2570000 ----- CPU =    939.2473 (sec) ----------------
Time     = 12850000.000000 Temp     = 259.390147 Press    = -351.699181 
PotEng   = -10.231445 KinEng   = 0.771683 Lx       = 24.644677 
Ly       = 24.644677 Lz       = 24.644677 Density  = 1.023272 
Volume   = 14968.193447 
---------------- Step  2580000 ----- CPU =    945.2235 (sec) ----------------
Time     = 12900000.000000 Temp     = 276.873968 Press    = 1630.432695 
PotEng   = -10.221407 KinEng   = 0.823697 Lx       = 24.720591 
Ly       = 24.720591 Lz       = 24.720591 Density  = 1.013874 
Volume   = 15106.940895 
---------------- Step  2590000 ----- CPU =    951.1902 (sec) ----------------
Time     = 12950000.000000 Temp     = 278.056814 Press    = 1666.335981 
PotEng   = -10.252909 KinEng   = 0.827216 Lx       = 24.602373 
Ly       = 24.602373 Lz       = 24.602373 Density  = 1.028560 
Volume   = 14891.243764 
---------------- Step  2600000 ----- CPU =    957.1544 (sec) ----------------
Time     = 13000000.000000 Temp     = 273.828559 Press    = 1420.931685 
PotEng   = -10.258950 KinEng   = 0.814637 Lx       = 24.604897 
Ly       = 24.604897 Lz       = 24.604897 Density  = 1.028243 
Volume   = 14895.829047 
---------------- Step  2610000 ----- CPU =    963.1424 (sec) ----------------
Time     = 13050000.000000 Temp     = 281.217944 Press    = 907.073005 
PotEng   = -10.166127 KinEng   = 0.836620 Lx       = 24.637018 
Ly       = 24.637018 Lz       = 24.637018 Density  = 1.024227 
Volume   = 14954.242239 
---------------- Step  2620000 ----- CPU =    969.1422 (sec) ----------------
Time     = 13100000.000000 Temp     = 263.798767 Press    = 311.521717 
PotEng   = -10.185702 KinEng   = 0.784798 Lx       = 24.736014 
Ly       = 24.736014 Lz       = 24.736014 Density  = 1.011979 
Volume   = 15135.233943 
---------------- Step  2630000 ----- CPU =    975.1466 (sec) ----------------
Time     = 13150000.000000 Temp     = 287.058568 Press    = 558.181211 
PotEng   = -10.227455 KinEng   = 0.853996 Lx       = 24.663283 
Ly       = 24.663283 Lz       = 24.663283 Density  = 1.020958 
Volume   = 15002.121418 
---------------- Step  2640000 ----- CPU =    981.0977 (sec) ----------------
Time     = 13200000.000000 Temp     = 257.324444 Press    = 2109.721715 
PotEng   = -10.235401 KinEng   = 0.765537 Lx       = 24.585394 
Ly       = 24.585394 Lz       = 24.585394 Density  = 1.030692 
Volume   = 14860.435460 
---------------- Step  2650000 ----- CPU =    987.0710 (sec) ----------------
Time     = 13250000.000000 Temp     = 271.525932 Press    = 1204.290791 
PotEng   = -10.241154 KinEng   = 0.807786 Lx       = 24.690382 
Ly       = 24.690382 Lz       = 24.690382 Density  = 1.017600 
Volume   = 15051.626517 
---------------- Step  2660000 ----- CPU =    993.0739 (sec) ----------------
Time     = 13300000.000000 Temp     = 277.016445 Press    = 66.522180 
PotEng   = -10.252648 KinEng   = 0.824121 Lx       = 24.646927 
Ly       = 24.646927 Lz       = 24.646927 Density  = 1.022992 
Volume   = 14972.294453 
---------------- Step  2670000 ----- CPU =    999.0842 (sec) ----------------
Time     = 13350000.000000 Temp     = 287.123203 Press    = 282.236890 
PotEng   = -10.161593 KinEng   = 0.854188 Lx       = 24.745886 
Ly       = 24.745886 Lz       = 24.745886 Density  = 1.010768 
Volume   = 15153.361967 
---------------- Step  2680000 ----- CPU =   1005.0529 (sec) ----------------
Time     = 13400000.000000 Temp     = 258.804165 Press    = 228.000585 
PotEng   = -10.241495 KinEng   = 0.769939 Lx       = 24.702193 
Ly       = 24.702193 Lz       = 24.702193 Density  = 1.016141 
Volume   = 15073.237759 
---------------- Step  2690000 ----- CPU =   1011.0187 (sec) ----------------
Time     = 13450000.000000 Temp     = 268.103615 Press    = 1131.540098 
PotEng   = -10.232853 KinEng   = 0.797605 Lx       = 24.608863 
Ly       = 24.608863 Lz       = 24.608863 Density  = 1.027746 
Volume   = 14903.032504 
---------------- Step  2700000 ----- CPU =   1016.9897 (sec) ----------------
Time     = 13500000.000000 Temp     = 285.266950 Press    = 302.128919 
PotEng   = -10.194369 KinEng   = 0.848666 Lx       = 24.777178 
Ly       = 24.777178 Lz       = 24.777178 Density  = 1.006943 
Volume   = 15210.920513 
---------------- Step  2710000 ----- CPU =   1022.9940 (sec) ----------------
Time     = 13550000.000000 Temp     = 256.388330 Press    = 535.800014 
PotEng   = -10.213782 KinEng   = 0.762752 Lx       = 24.649295 
Ly       = 24.649295 Lz       = 24.649295 Density  = 1.022697 
Volume   = 14976.609653 
---------------- Step  2720000 ----- CPU =   1028.9816 (sec) ----------------
Time     = 13600000.000000 Temp     = 283.824307 Press    = 717.785270 
PotEng   = -10.273842 KinEng   = 0.844374 Lx       = 24.697885 
Ly       = 24.697885 Lz       = 24.697885 Density  = 1.016673 
Volume   = 15065.352544 
---------------- Step  2730000 ----- CPU =   1034.9441 (sec) ----------------
Time     = 13650000.000000 Temp     = 279.054408 Press    = 1846.952010 
PotEng   = -10.233659 KinEng   = 0.830184 Lx       = 24.630575 
Ly       = 24.630575 Lz       = 24.630575 Density  = 1.025031 
Volume   = 14942.513682 
---------------- Step  2740000 ----- CPU =   1040.8906 (sec) ----------------
Time     = 13700000.000000 Temp     = 272.953101 Press    = 1276.255709 
PotEng   = -10.207138 KinEng   = 0.812032 Lx       = 24.652758 
Ly       = 24.652758 Lz       = 24.652758 Density  = 1.022266 
Volume   = 14982.922915 
---------------- Step  2750000 ----- CPU =   1046.8811 (sec) ----------------
Time     = 13750000.000000 Temp     = 268.204066 Press    = 755.793907 
PotEng   = -10.210527 KinEng   = 0.797904 Lx       = 24.704994 
Ly       = 24.704994 Lz       = 24.704994 Density  = 1.015795 
Volume   = 15078.364552 
---------------- Step  2760000 ----- CPU =   1052.8642 (sec) ----------------
Time     = 13800000.000000 Temp     = 256.531503 Press    = 1842.781321 
PotEng   = -10.261225 KinEng   = 0.763178 Lx       = 24.645186 
Ly       = 24.645186 Lz       = 24.645186 Density  = 1.023209 
Volume   = 14969.120356 
---------------- Step  2770000 ----- CPU =   1058.8274 (sec) ----------------
Time     = 13850000.000000 Temp     = 267.727136 Press    = 1379.572849 
PotEng   = -10.235351 KinEng   = 0.796485 Lx       = 24.649778 
Ly       = 24.649778 Lz       = 24.649778 Density  = 1.022637 
Volume   = 14977.490291 
---------------- Step  2780000 ----- CPU =   1064.7841 (sec) ----------------
Time     = 13900000.000000 Temp     = 269.062370 Press    = 1442.239804 
PotEng   = -10.249052 KinEng   = 0.800457 Lx       = 24.701341 
Ly       = 24.701341 Lz       = 24.701341 Density  = 1.016246 
Volume   = 15071.677293 
---------------- Step  2790000 ----- CPU =   1070.7687 (sec) ----------------
Time     = 13950000.000000 Temp     = 261.294021 Press    = 752.039605 
PotEng   = -10.283017 KinEng   = 0.777347 Lx       = 24.694722 
Ly       = 24.694722 Lz       = 24.694722 Density  = 1.017064 
Volume   = 15059.564574 
---------------- Step  2800000 ----- CPU =   1076.7299 (sec) ----------------
Time     = 14000000.000000 Temp     = 272.609705 Press    = 349.938393 
PotEng   = -10.220613 KinEng   = 0.811011 Lx       = 24.734962 
Ly       = 24.734962 Lz       = 24.734962 Density  = 1.012108 
Volume   = 15133.302880 
---------------- Step  2810000 ----- CPU =   1082.7201 (sec) ----------------
Time     = 14050000.000000 Temp     = 262.195883 Press    = 737.046355 
PotEng   = -10.229264 KinEng   = 0.780030 Lx       = 24.645796 
Ly       = 24.645796 Lz       = 24.645796 Density  = 1.023133 
Volume   = 14970.233347 
---------------- Step  2820000 ----- CPU =   1088.6550 (sec) ----------------
Time     = 14100000.000000 Temp     = 293.074877 Press    = 1929.456853 
PotEng   = -10.254895 KinEng   = 0.871894 Lx       = 24.602187 
Ly       = 24.602187 Lz       = 24.602187 Density  = 1.028583 
Volume   = 14890.905913 
---------------- Step  2830000 ----- CPU =   1094.6900 (sec) ----------------
Time     = 14150000.000000 Temp     = 272.972495 Press    = 2557.621779 
PotEng   = -10.256521 KinEng   = 0.812090 Lx       = 24.584332 
Ly       = 24.584332 Lz       = 24.584332 Density  = 1.030826 
Volume   = 14858.509480 
---------------- Step  2840000 ----- CPU =   1100.6571 (sec) ----------------
Time     = 14200000.000000 Temp     = 275.644179 Press    = 1128.736640 
PotEng   = -10.225951 KinEng   = 0.820038 Lx       = 24.709077 
Ly       = 24.709077 Lz       = 24.709077 Density  = 1.015292 
Volume   = 15085.842327 
---------------- Step  2850000 ----- CPU =   1106.6049 (sec) ----------------
Time     = 14250000.000000 Temp     = 269.424148 Press    = 759.101179 
PotEng   = -10.271062 KinEng   = 0.801534 Lx       = 24.695174 
Ly       = 24.695174 Lz       = 24.695174 Density  = 1.017008 
Volume   = 15060.391480 
---------------- Step  2860000 ----- CPU =   1112.5717 (sec) ----------------
Time     = 14300000.000000 Temp     = 282.023549 Press    = 1869.131863 
PotEng   = -10.265503 KinEng   = 0.839017 Lx       = 24.660200 
Ly       = 24.660200 Lz       = 24.660200 Density  = 1.021341 
Volume   = 14996.495052 
---------------- Step  2870000 ----- CPU =   1118.5466 (sec) ----------------
Time     = 14350000.000000 Temp     = 289.519958 Press    = 3120.126167 
PotEng   = -10.310616 KinEng   = 0.861318 Lx       = 24.562143 
Ly       = 24.562143 Lz       = 24.562143 Density  = 1.033622 
Volume   = 14818.312225 
---------------- Step  2880000 ----- CPU =   1124.5206 (sec) ----------------
Time     = 14400000.000000 Temp     = 268.082944 Press    = 694.282933 
PotEng   = -10.248486 KinEng   = 0.797544 Lx       = 24.706822 
Ly       = 24.706822 Lz       = 24.706822 Density  = 1.015570 
Volume   = 15081.712003 
---------------- Step  2890000 ----- CPU =   1130.5226 (sec) ----------------
Time     = 14450000.000000 Temp     = 257.363546 Press    = -14.208579 
PotEng   = -10.203170 KinEng   = 0.765653 Lx       = 24.701229 
Ly       = 24.701229 Lz       = 24.701229 Density  = 1.016260 
Volume   = 15071.472657 
---------------- Step  2900000 ----- CPU =   1136.4561 (sec) ----------------
Time     = 14500000.000000 Temp     = 260.853546 Press    = 608.860753 
PotEng   = -10.226397 KinEng   = 0.776036 Lx       = 24.708120 
Ly       = 24.708120 Lz       = 24.708120 Density  = 1.015410 
Volume   = 15084.088913 
---------------- Step  2910000 ----- CPU =   1142.4114 (sec) ----------------
Time     = 14550000.000000 Temp     = 274.819743 Press    = 1378.971307 
PotEng   = -10.261871 KinEng   = 0.817585 Lx       = 24.652788 
Ly       = 24.652788 Lz       = 24.652788 Density  = 1.022262 
Volume   = 14982.977950 
---------------- Step  2920000 ----- CPU =   1148.3964 (sec) ----------------
Time     = 14600000.000000 Temp     = 278.074297 Press    = 1483.652272 
PotEng   = -10.213652 KinEng   = 0.827268 Lx       = 24.623570 
Ly       = 24.623570 Lz       = 24.623570 Density  = 1.025906 
Volume   = 14929.768221 
---------------- Step  2930000 ----- CPU =   1154.3584 (sec) ----------------
Time     = 14650000.000000 Temp     = 257.848716 Press    = 778.603767 
PotEng   = -10.228939 KinEng   = 0.767097 Lx       = 24.695205 
Ly       = 24.695205 Lz       = 24.695205 Density  = 1.017004 
Volume   = 15060.448344 
---------------- Step  2940000 ----- CPU =   1160.3271 (sec) ----------------
Time     = 14700000.000000 Temp     = 272.890019 Press    = 141.888492 
PotEng   = -10.226026 KinEng   = 0.811845 Lx       = 24.750094 
Ly       = 24.750094 Lz       = 24.750094 Density  = 1.010253 
Volume   = 15161.093831 
---------------- Step  2950000 ----- CPU =   1166.3487 (sec) ----------------
Time     = 14750000.000000 Temp     = 271.215760 Press    = -198.772892 
PotEng   = -10.181184 KinEng   = 0.806864 Lx       = 24.716924 
Ly       = 24.716924 Lz       = 24.716924 Density  = 1.014325 
Volume   = 15100.219815 
---------------- Step  2960000 ----- CPU =   1172.3210 (sec) ----------------
Time     = 14800000.000000 Temp     = 261.606999 Press    = 826.230435 
PotEng   = -10.205475 KinEng   = 0.778278 Lx       = 24.667421 
Ly       = 24.667421 Lz       = 24.667421 Density  = 1.020444 
Volume   = 15009.672867 
---------------- Step  2970000 ----- CPU =   1178.2921 (sec) ----------------
Time     = 14850000.000000 Temp     = 276.595721 Press    = 1019.346589 
PotEng   = -10.224833 KinEng   = 0.822869 Lx       = 24.621420 
Ly       = 24.621420 Lz       = 24.621420 Density  = 1.026175 
Volume   = 14925.857099 
---------------- Step  2980000 ----- CPU =   1184.3065 (sec) ----------------
Time     = 14900000.000000 Temp     = 264.568905 Press    = 906.219864 
PotEng   = -10.210442 KinEng   = 0.787089 Lx       = 24.678610 
Ly       = 24.678610 Lz       = 24.678610 Density  = 1.019057 
Volume   = 15030.107230 
---------------- Step  2990000 ----- CPU =   1190.3249 (sec) ----------------
Time     = 14950000.000000 Temp     = 275.031653 Press    = 1158.680672 
PotEng   = -10.194753 KinEng   = 0.818216 Lx       = 24.690401 
Ly       = 24.690401 Lz       = 24.690401 Density  = 1.017598 
Volume   = 15051.661376 
---------------- Step  3000000 ----- CPU =   1196.3555 (sec) ----------------
Time     = 15000000.000000 Temp     = 275.444938 Press    = 833.004105 
PotEng   = -10.244686 KinEng   = 0.819445 Lx       = 24.666761 
Ly       = 24.666761 Lz       = 24.666761 Density  = 1.020526 
Volume   = 15008.468535 
Loop time of 1196.36 on 6 procs for 2000000 steps with 512 atoms

Performance: 722.193 ns/day, 0.033 hours/ns, 1671.744 timesteps/s
97.2% CPU use with 6 MPI tasks x no OpenMP threads

MPI task timing breakdown:
Section |  min time  |  avg time  |  max time  |%varavg| %total
---------------------------------------------------------------
Pair    | 1011.6     | 1013.5     | 1016.3     |   5.8 | 84.72
Neigh   | 27.722     | 27.756     | 27.777     |   0.3 |  2.32
Comm    | 125.75     | 127.89     | 129.27     |  12.9 | 10.69
Output  | 0.0053997  | 0.0082214  | 0.022024   |   6.8 |  0.00
Modify  | 21.844     | 22.443     | 22.788     |   6.9 |  1.88
Other   |            | 4.711      |            |       |  0.39

Nlocal:    85.3333 ave 90 max 83 min
Histogram: 2 1 1 0 0 1 0 0 0 1
Nghost:    574.667 ave 580 max 567 min
Histogram: 1 0 0 1 1 0 1 0 0 2
Neighs:    0 ave 0 max 0 min
Histogram: 6 0 0 0 0 0 0 0 0 0
FullNghs:  2920.33 ave 3104 max 2829 min
Histogram: 2 1 0 1 1 0 0 0 0 1

Total # of neighbors = 17522
Ave neighs/atom = 34.2227
Neighbor list builds = 123122
Dangerous builds = 0
System init for write_data ...
Total wall time: 0:29:53
