LAMMPS data file via write_data, version 4 Jan 2019, timestep = 3000000

512 atoms
1 atom types

6.6483648127533712e-02 2.4768516351870964e+01 xlo xhi
6.6483648127533712e-02 2.4768516351870964e+01 ylo yhi
6.6483648127533712e-02 2.4768516351870964e+01 zlo zhi

Masses

1 18.0153

Atoms # atomic

293 1 1.6029663094896584e+01 7.5950119235730451e+00 6.1130736056436747e+00 16 124 64
483 1 2.3695131477056918e+01 5.3247770690570944e+00 5.1749810073148117e+00 47 60 14
264 1 5.9853083765956523e+00 1.9626968036579495e+00 2.4624941147532029e+00 -104 30 39
487 1 6.8140304836426582e+00 5.3366698636926158e+00 1.0179221941749361e+00 17 39 -7
505 1 6.3051087191332140e+00 9.6618580310824989e+00 1.1008598586233704e+00 -5 25 -41
228 1 9.9019013173239028e+00 1.1821684964696185e+01 5.9697889951020322e+00 -44 31 12
296 1 6.7018011666669688e+00 4.9138564267454115e+00 7.0338324493334961e+00 -54 -108 53
420 1 2.2228451641448228e+01 4.2226369317140042e+00 2.2952277150418636e+00 41 -24 118
274 1 1.4265397270872402e+01 1.1365362858474839e+01 6.7711692760464040e+00 -43 32 2
401 1 1.6531837098291248e+01 9.9446889352402170e+00 7.3390138782230192e+00 40 12 12
297 1 1.6050546830551711e+00 8.7043064850093721e+00 2.5175392241507608e+00 13 20 -9
83 1 1.5907169143065891e+01 1.1879293199116022e+01 4.0114765517035327e+00 32 12 11
484 1 1.8329262265392313e+01 6.3498552619228050e+00 7.4657276435760416e+00 -47 -29 86
244 1 2.1136026256948803e+01 1.0747966284007560e+01 2.8136515154793713e+00 -33 57 1
342 1 3.6033075900942428e+00 1.0593846530673598e+01 4.5697666163130162e+00 25 -11 11
85 1 2.4747064808593471e+01 8.4856810770410611e+00 4.9727847995080268e+00 14 39 -108
493 1 2.1952700883654916e+01 7.0838862194165131e+00 2.5595976064603936e+00 -39 104 57
63 1 7.5409734598537668e+00 1.0815345701059144e+01 7.7370578958032352e+00 14 -7 -85
200 1 9.7001995630070237e+00 6.5611450239343068e+00 4.2926089517700792e+00 61 77 -23
179 1 1.8802325806700594e+01 4.5617822418545924e+00 5.4771700916842745e+00 -72 -63 -38
17 1 1.9340956369115567e+01 9.0559291096018875e+00 5.9137740127607774e+00 49 24 14
225 1 1.8304528271971961e+01 1.0009231927873351e+01 7.4737601645166418e-01 14 84 6
383 1 1.1963991374600930e+01 5.1359155345185927e+00 2.1193449371920922e-01 -39 92 -19
441 1 1.8249064992370087e+01 1.1862070710138413e+01 5.4854343204880465e+00 3 -64 -14
339 1 1.6389885438355165e+01 3.6259301618663504e+00 2.6263806983529827e+00 27 47 -2
285 1 1.2030800109665124e+01 1.0329087839650732e+01 5.4662564461241345e+00 -22 73 -11
95 1 2.1872494465225895e+01 7.4114361145752392e+00 5.8678620580496883e+00 57 116 1
465 1 1.3122698683995367e+01 1.1491565730390241e+00 5.0863236560223211e+00 27 43 46
322 1 8.4923353861769280e-01 4.3225229339714044e+00 3.1000741694165703e+00 7 49 -10
152 1 7.4032715182232050e+00 1.4235029256342813e-01 6.5659055937239685e+00 -54 -146 -1
132 1 2.1288068088710217e+00 1.0902584658456028e+01 7.4797812470536647e+00 -34 3 -72
313 1 4.7361515932968770e+00 4.9245324852770411e-01 6.4953421861291520e+00 -47 33 29
198 1 1.6138669214664003e+00 8.5860673575738016e+00 7.0903347661343101e+00 -28 56 12
325 1 1.3879372971614270e+01 6.4980458006206119e+00 3.8384813634616979e+00 -89 34 36
212 1 9.6953098928486874e+00 6.1862679110947809e+00 1.6123475854097273e+00 -22 -36 -38
23 1 1.5667552155884071e+01 2.0516848949073174e+00 4.6123665530704798e+00 66 32 5
486 1 1.2258026186730744e+01 1.2219742555449686e+01 3.0552049734321489e+00 45 29 -11
373 1 8.5022017334912992e+00 2.7930474592684531e+00 1.6942835140433772e+00 52 37 -44
489 1 7.8798726340099980e+00 8.4104397309641019e+00 4.6492103272031748e+00 73 197 -43
509 1 2.0362357715870818e+00 3.4743413668885315e+00 7.4830456235122327e+00 115 44 -75
402 1 2.3304439220409641e+01 1.1045976328990418e+01 4.6848271170512046e+00 35 63 -32
151 1 2.4296753698187725e+01 4.8557711663092400e+00 7.7430019190474901e+00 -41 -42 -16
118 1 2.1448975120763752e+01 1.3844453702736010e+00 9.1997762170926045e-01 -29 134 -82
106 1 7.1964556242426712e+00 7.4472864944480666e+00 7.3987408994319033e+00 10 -20 5
471 1 5.1603166969407637e+00 5.6505258871836377e+00 3.0498618836350446e+00 -94 -25 23
207 1 1.9563006223777663e+01 3.3711517436875820e+00 2.7333448204962552e+00 36 -29 11
366 1 2.1380165137653567e+01 2.9331996990458087e-01 5.8415797123231554e+00 156 -1 -39
71 1 1.2784334072252573e+01 9.8871527839253648e-01 2.1247151136227851e+00 68 -66 -56
400 1 4.3559334446078388e+00 7.3921077222139360e+00 6.1513737273747138e+00 62 28 -34
479 1 8.0131717708109278e+00 1.1183277638842686e+01 4.0247552700907905e+00 -30 -15 -63
414 1 1.3021197953171521e+01 5.8755214614472315e+00 6.6456450467859245e+00 97 6 63
275 1 1.9298308690565367e+00 1.1698358821851986e+01 2.8558620818859657e+00 31 -6 31
344 1 1.5368354395246470e+01 7.6625540102179848e+00 1.4097697765147614e+00 32 -41 12
175 1 1.7444364555630628e+01 6.5456955318065217e+00 3.1636676647883291e+00 44 2 -19
455 1 2.6640674152130148e+00 5.9478875386434291e+00 2.4513857602147846e+00 41 97 20
273 1 1.1945393508838430e+01 9.6373525921722489e+00 7.8213214601572467e-01 77 178 125
41 1 5.5009927956764670e+00 8.3649082421873935e+00 3.6669567736505990e+00 66 0 36
302 1 2.4393146273659845e+01 1.4460825489931934e+00 7.4026899326437583e+00 35 -63 -35
326 1 1.8852441577445138e+01 4.2464742612013717e-01 2.4237198156247710e+00 45 118 -11
240 1 5.4488042759624529e+00 3.8051458072393931e+00 4.8610886637919064e+00 -220 126 60
204 1 4.7313118966448187e+00 1.0081939882540631e+01 7.8851056809544158e+00 17 -18 -174
12 1 1.1970391601323900e+01 8.5126815610561621e+00 3.1728975843773273e+00 48 -40 57
426 1 1.3509717926441814e+01 3.7153130732392579e+00 2.0259628758139492e+00 78 -1 51
5 1 9.7596755357165179e+00 4.4824278374965432e-01 1.9915266266142404e+00 42 43 -3
72 1 1.6902786136820072e+01 2.8981356864989314e+00 6.6738994332889892e+00 28 70 46
101 1 9.4528224789084465e+00 4.0510776341350851e+00 4.6270083490764096e+00 -24 -25 67
253 1 1.1185272853762351e+01 7.6533737684575662e+00 6.7443251952921042e+00 -7 18 -17
178 1 2.4027608285256591e+01 8.8505301695482252e+00 9.7792364136761789e-01 78 23 -55
318 1 1.5837349243395121e+01 1.0495139760572043e+01 1.7907531522640623e+00 36 -10 156
249 1 9.8612748694938972e+00 1.4476821332337189e+00 6.2739681428184984e+00 -69 -43 -34
405 1 1.2421040771706599e+01 3.7069778431515483e+00 4.7466979659415030e+00 -19 7 47
280 1 1.4645298584212698e+00 1.6757702821857601e+00 3.2195915056026658e+00 15 -44 155
419 1 2.1409748677215276e+01 2.7922723997432870e+00 6.6517333065151192e+00 42 3 14
319 1 1.9052812069830399e+01 1.9433137949457466e+00 8.2003758130732365e+00 -37 3 60
166 1 1.9485734128013888e+01 8.6544136934950870e+00 3.0988196610991965e+00 32 -11 -25
230 1 2.9959739200507052e+00 2.3617308345179473e+00 5.2692061167502926e+00 3 -41 -141
66 1 2.1630033749401772e+01 1.0364173032586667e+01 6.7983223743577339e+00 -22 36 -21
384 1 2.4665314400203837e+01 4.0627186094219505e+00 5.6340014049216047e-01 0 15 8
349 1 3.5946254832441511e+00 9.5566104498878595e+00 4.2717785838684563e-01 1 23 58
333 1 2.4495136743553122e+01 2.6025757215819767e-01 4.8642996756925081e+00 27 34 33
43 1 9.4054879324278051e+00 3.8784201291495100e+00 8.1486802332892125e+00 -17 -1 23
184 1 1.3930407438821778e+01 1.1221059231750244e+01 1.0364070637875145e-01 -3 7 39
377 1 1.6034371537856504e+01 4.7223782659322255e+00 8.4804474049256786e+00 19 14 -105
501 1 2.1908276918122269e+01 3.7580996588714042e+00 9.2274721779645184e+00 28 -10 -27
453 1 2.3835261209771499e+01 1.2176975938997161e+01 1.0620570795159749e+01 67 -4 1
57 1 2.3634373560967916e+01 9.8788843684886256e+00 9.0084786708486710e+00 -21 -5 22
437 1 9.8986589571031462e+00 1.2058618620492490e+01 1.6375278541254211e+01 6 0 -124
183 1 4.8936002477739429e+00 1.2067810012053199e+01 1.4569239541586967e+01 19 99 14
257 1 1.6678278806808862e+01 7.9232495461309158e+00 1.1105602040264483e+01 -19 14 56
433 1 2.3363142702024615e+00 8.9897857466910622e+00 1.3703486460029803e+01 14 -53 -45
173 1 2.0178023520497010e+01 5.0151897080841330e+00 1.0965402529897331e+01 51 51 -7
153 1 1.1143488692219325e+01 1.0152816251594983e+00 9.0000303230746255e+00 3 -31 89
16 1 1.9723431395714108e+01 7.0335841467418838e+00 1.6231398058513996e+01 148 101 1
337 1 8.9818829716160824e+00 9.2797038366846873e+00 1.5369176627777625e+01 25 5 -53
130 1 7.6518078584053226e+00 5.6522290389653973e+00 1.5003269458142666e+01 -15 -29 20
451 1 5.8293464534261008e-01 6.7185789161838549e-01 1.2806573221686492e+01 69 45 -13
255 1 1.4476205709386058e+01 7.5183929739921389e+00 8.9140458011786148e+00 -117 -6 89
481 1 1.6132568804348846e+01 1.0010433307040261e+00 1.2093606593190733e+01 30 -21 -16
375 1 2.0493678800589294e+00 2.9251088413487589e+00 1.1869331831046281e+01 4 50 -124
331 1 2.1789318503935153e+01 9.6754860391924193e+00 1.4953740364066730e+01 20 24 -17
120 1 1.9812007990949163e+00 1.2394383064612331e+01 1.0010909829794999e+01 5 -79 76
428 1 2.3728508504168211e+01 6.5443009335687279e+00 1.1760763001252091e+01 48 -6 -6
15 1 2.4346961078119023e+01 7.5019083890068314e+00 1.4590300254204440e+01 0 -17 -141
164 1 6.2827461941488041e+00 3.9491910530443008e+00 1.2496965049610422e+01 62 25 145
251 1 2.1228628943949690e+01 6.9467840576589044e+00 1.3152027160662616e+01 -35 30 -49
88 1 3.3613786496804772e+00 7.3367506502576703e+00 9.6645077467764171e+00 -20 18 59
305 1 1.7912078753217084e+01 7.4556182291901019e+00 1.3900512231260690e+01 24 105 38
300 1 1.4058763413695111e+01 8.3876379681958668e-01 9.6995594108385781e+00 -82 59 37
444 1 2.1040420767964747e+01 1.1913968683451348e+01 1.0760033387000181e+01 2 -41 10
321 1 9.6167496128850676e+00 2.2353238766818806e+00 1.5950759884822789e+01 52 20 -76
162 1 6.9552025279188809e+00 1.5182465639432028e+00 1.4852553323468323e+01 -50 2 -1
423 1 1.7086728035457394e+01 1.0443854718924419e+01 1.0099487370069758e+01 -8 6 62
467 1 2.7751558626050703e+00 6.0012502332897444e-01 1.4652218533564225e+01 -62 93 55
3 1 1.0930760263182382e+01 9.9684406358778830e+00 1.3654766195889694e+01 4 64 22
80 1 2.5858532864086405e+00 6.7591154876767439e+00 1.6174586710667590e+01 23 52 8
237 1 1.6581051610332473e+01 1.0477909113195327e+01 1.5234239994415592e+01 22 -34 -27
138 1 1.2469960102415451e+01 5.4091745845201877e-01 1.3296782021547774e+01 174 34 20
435 1 1.1131305145430337e+01 1.0967539119519467e+01 1.0618185528404542e+01 -53 -5 -18
316 1 1.9557071768884416e+01 1.9128885713641890e+00 1.1249287061938048e+01 30 108 79
97 1 2.4454533127561891e+01 4.7022999978588240e+00 1.5351707701009651e+01 17 66 -11
424 1 1.1883621087951008e+01 7.2508593513760298e+00 1.0534074978193965e+01 43 3 -16
218 1 1.2185203337259248e+01 4.6260031954909326e+00 1.1183326706909041e+01 -51 -22 -14
235 1 1.3094804159984660e+01 1.0032046589944402e+01 8.8472907821505817e+00 30 -47 149
492 1 1.3245952973933335e+01 8.4620003785671845e+00 1.2734030665637704e+01 -2 -17 45
214 1 1.9493815783210312e+01 9.9370155917898231e+00 1.1964781480753214e+01 12 99 0
499 1 6.6353513661651782e+00 7.8295180278074037e+00 1.3726243241789112e+01 37 -28 -72
457 1 9.1807716500035976e+00 7.2651687124438054e+00 9.3547817974897107e+00 -13 -39 78
254 1 6.5008395030106323e+00 1.0134181862151537e+00 1.2182243617573196e+01 38 86 41
44 1 2.2173029558068958e+01 1.6915181813961859e+00 1.1087519032722339e+01 -24 -38 97
365 1 3.8847840243481708e+00 1.1623822316477645e+01 1.1778263947668712e+01 -2 81 -25
25 1 2.3134292692860093e+01 9.5588469695870115e-01 1.4352392277110642e+01 46 -82 -67
45 1 1.3176109428800588e+01 3.5905129231746931e+00 9.0747918432796624e+00 0 89 -80
355 1 1.4666946548444342e+01 2.5131292654696060e+00 1.3936852567625513e+01 -34 2 72
39 1 8.0788246446754695e+00 5.5642397130167796e+00 1.1604682975381699e+01 4 40 35
202 1 1.4820276145598486e+01 1.1308839699552777e+01 1.0835003946126815e+01 23 87 -16
219 1 1.5032253717126942e+01 6.9294566272811275e+00 1.3892275439182578e+01 -25 -13 -113
443 1 2.4497901210723903e+01 1.0697711212916010e+01 1.5041386241918012e+01 -110 24 -2
284 1 2.1005205734290214e-01 7.3312968374550511e+00 9.1716153879701707e+00 -90 -70 -11
193 1 1.0340988926819294e+01 4.8791800388237601e+00 1.4704944556092286e+01 -62 13 -12
279 1 1.9475866925673685e+01 1.1001257396887647e+01 1.4603623742570365e+01 -38 170 55
99 1 1.4303982090118920e+01 4.6737129752863815e+00 1.2604297577021043e+01 -3 -10 33
82 1 4.3200609591428494e+00 2.9610473505514929e+00 1.0479506505707741e+01 -9 -2 -1
376 1 1.4644691608778196e+01 1.0666416779429845e+01 1.3424514458514224e+01 -84 -2 -11
129 1 1.8934614329918720e+01 7.1269128295169883e+00 1.0125925315096255e+01 -34 -44 -78
311 1 1.9008268452572288e+01 4.3273145899378029e+00 1.3898881344860467e+01 16 -59 10
272 1 9.7684892979554778e+00 3.1315830252297170e+00 1.1202327018484372e+01 -28 9 118
351 1 1.0266822156707452e+01 7.0575488823318233e+00 1.2868882764294604e+01 25 -18 -69
363 1 5.1573060360615859e+00 9.3707608148892021e+00 1.0974656073406804e+01 -19 -46 16
79 1 2.1568565913089159e+01 8.6419093992981519e+00 1.0551966658165881e+01 4 -96 108
374 1 2.1810027100155224e+01 3.5493643905870593e+00 1.4668630700609748e+01 -14 31 -12
265 1 8.3262613160090417e+00 9.6063014673304039e+00 1.0397601716841141e+01 -82 -55 56
391 1 7.0576778142694669e+00 2.1560442993164481e+00 8.9418845476472431e+00 -85 -36 -12
126 1 3.0099586207890896e+00 6.8021686648762989e+00 1.2339519581926798e+01 -34 -31 -26
159 1 4.8867520733459093e+00 9.3819063348707470e+00 1.4977859089837315e+01 -47 45 107
356 1 7.8511062676418586e+00 1.0603109739040587e+01 1.2811239294113694e+01 -68 0 -7
116 1 2.3962210838555194e+01 3.8127868704086052e+00 1.2156903441459280e+01 -51 13 3
177 1 1.6744338652183341e+01 3.5979420964230027e+00 1.0953974676642861e+01 -33 -45 52
182 1 2.5726410275417408e+00 4.5299242229396972e+00 1.3943934186711457e+01 119 53 41
47 1 4.7867327735905150e+00 3.8996249340193656e+00 1.5157329221291798e+01 20 54 -103
221 1 2.3598913138183569e+01 9.7122763191662090e-02 9.2690029635622153e+00 -7 1 43
65 1 3.8555305736333763e+00 3.9660181706272446e-01 9.6325901983483710e+00 -39 66 -15
102 1 4.4038506576255454e+00 5.0956512940719945e+00 8.7318439899304856e+00 25 -22 21
472 1 1.2323815745587275e+01 1.2102302378400875e+01 1.4826663041457888e+01 36 -25 56
281 1 1.1169538567904247e+01 3.9657016892624841e-01 2.3774680845982619e+01 36 -29 110
236 1 1.9621434589409616e+00 7.7389523570794783e+00 2.1750416431534362e+01 31 87 70
145 1 5.2024793599573576e+00 5.6950482951956642e+00 1.7788879152622634e+01 35 -5 -55
186 1 1.4623407082696236e+01 7.3158071536539193e+00 1.6610164407503429e+01 -22 169 34
4 1 1.0775175056408548e+01 1.1431071630073284e+01 2.1706989365751287e+01 15 -65 15
187 1 4.8404400659598688e+00 7.6676888511150718e+00 2.0099601946236529e+01 -5 22 -8
108 1 2.2144345038346085e+01 4.1536689043590407e+00 2.3300981237898096e+01 49 -39 37
150 1 1.6716226201005306e+01 5.1877602758746981e+00 1.6927823523663690e+01 69 -32 74
277 1 6.9297079118573466e+00 8.7487549886416769e+00 1.8378801669861861e+01 37 6 113
462 1 2.5360011195091658e-01 1.1943379682100234e+01 2.0797912719603136e+01 -64 10 47
196 1 5.1937875739131139e+00 7.0283902696881793e+00 2.4238413595508639e+01 9 21 12
146 1 1.9246123834831106e+01 3.9713437430514480e+00 1.7133017726167321e+01 3 -4 -2
37 1 8.2690192527590078e-02 1.2217294203574829e+01 1.7130130013317117e+01 49 41 -36
220 1 1.3397658132225388e+01 1.1454633914877530e+01 1.7338254091190631e+01 61 -2 1
398 1 2.5942722541670555e+00 6.3506766605813860e+00 2.4196714646907143e+01 -48 -28 5
371 1 1.4235573285216535e+01 7.3227904511678963e+00 2.1757631676910595e+01 -77 32 -66
372 1 6.8283076645479284e+00 1.1332816047323317e+00 1.8448154769427504e+01 11 -7 28
128 1 1.8865983256612161e+01 5.3894431580649016e+00 2.2608895478416557e+01 35 13 -24
266 1 9.0300168056096108e+00 1.0891443940819473e+01 1.8555567245359597e+01 27 -63 15
7 1 2.1797403475286320e+01 8.7188140005463683e+00 1.7459928380654564e+01 52 6 42
14 1 8.0845000138517715e+00 6.4608756742676352e+00 1.7663661197004316e+01 48 -35 30
50 1 2.2476149062605387e+01 3.5380307579743586e-01 1.7334500426287551e+01 12 23 -44
269 1 1.1240260032652476e+01 7.3825146306400438e+00 2.0889841217119280e+01 13 -43 -1
58 1 1.7255126739574308e+01 1.1213715002202283e+01 1.8935350812652764e+01 14 -16 -6
360 1 1.4611768768258688e+01 1.9218243574863985e+00 1.9754129919654684e+01 -104 -46 66
26 1 3.3637189618958834e+00 1.0165963918430592e+01 2.0545691700124976e+01 -27 11 72
42 1 1.3898012155181670e+01 1.0429779859503716e+00 2.3748699727680407e+01 2 78 -66
454 1 2.4697686163073946e+01 7.9240157572389052e+00 1.7934313133464986e+01 -47 52 11
289 1 8.8942316887920425e-01 4.8095210278331169e-01 1.6698978877160588e+01 -19 -19 -52
288 1 3.1184487563885597e+00 1.1133812749601818e+01 2.3128087631601229e+01 -65 -31 -84
261 1 1.9827969628681359e+01 9.6236388403818718e-01 1.6726848134765710e+01 20 47 -117
338 1 2.3403227060399118e+01 3.1996092132342495e+00 1.7650792732328842e+01 -4 5 34
119 1 1.9213082305317290e+01 4.9073616303191674e+00 1.9813692106173878e+01 47 68 109
320 1 7.1162158175359043e+00 1.1994355398254051e+01 2.4163822430085339e+01 25 77 41
364 1 2.1826685272782012e+01 1.0127044366203949e+01 2.0061267179433223e+01 109 11 -2
298 1 2.4388522502174713e+01 6.6528760381939982e+00 2.3828647166457642e+01 -6 54 13
408 1 5.9394977238878273e+00 3.7569325118176873e+00 2.1783669589674055e+01 -149 42 60
385 1 2.4588653405831582e+01 6.4930572434213554e+00 2.0091424101093914e+01 63 24 45
90 1 6.2545109279354048e+00 1.0479258832585293e+01 2.1785219062862563e+01 -48 -37 -71
396 1 3.8462991118639294e+00 8.8721829525108049e+00 1.7351722569953395e+01 -2 -1 19
506 1 2.2764874828985885e+01 3.4888816562514959e+00 2.0550888396880495e+01 -7 -19 4
500 1 1.8713545274597394e+01 7.7324057735339693e+00 1.8471207298438578e+01 64 -73 59
459 1 1.6353513990366121e+01 4.1302210345145056e+00 1.9841002174605258e+01 60 -16 41
259 1 1.3547027577557639e+01 3.7339965409196747e+00 2.3020950052656893e+01 1 55 34
242 1 2.1459590739934885e+01 9.9227412590325570e-01 1.9946258777710831e+01 17 -8 -48
192 1 1.6961181382540346e+01 1.0249027249174818e+01 2.2381305207630160e+01 -82 64 -59
148 1 9.9347056336631245e-01 1.0105865898845845e+01 1.8488022936060069e+01 -46 56 56
170 1 1.9478762105599849e+01 2.9286543651416248e+00 2.3835568019083468e+01 8 37 -9
256 1 1.1025872000232713e+01 6.2245539691200653e+00 1.6965935283944653e+01 35 22 -37
155 1 1.8885622699555068e+01 2.1186188829574828e+00 2.0952897892455152e+01 -45 33 24
10 1 2.2784565239226403e+01 8.4263915624938690e+00 2.1873866428508151e+01 -78 49 -32
476 1 8.5894003399779066e+00 8.8526751165531259e+00 2.1417290950795007e+01 -34 -23 -46
411 1 3.6981295692178467e-01 1.0211300173462206e+01 2.2829144971221087e+01 19 101 152
367 1 1.1621087855359713e+01 8.6917688186205382e+00 1.6732281053594704e+01 -2 -6 52
480 1 4.6653780329619003e+00 3.2247085874391286e+00 1.9256253950903552e+01 12 -48 84
142 1 1.3759632562393016e+01 1.1531977136320135e+01 2.1807352349300679e+01 16 25 51
291 1 1.2379157981795787e+01 5.6806762479239215e+00 1.9380747343788642e+01 32 106 70
122 1 1.5865438679221498e+01 5.0523551515704312e+00 2.2274939096374556e+01 9 7 15
415 1 1.6745138459728636e+01 7.5219647270102268e+00 2.3468859390546637e+01 -59 -39 27
429 1 2.0172521383330288e+01 9.1655545606381814e+00 2.3549389297608830e+01 -22 -46 45
206 1 1.2565119450293874e+01 3.1448860886912846e+00 2.0730936949405088e+01 24 -88 36
390 1 1.6369264994190811e+01 9.0873934366785143e+00 1.7677640500038041e+01 -20 -21 -23
24 1 7.5560292578189907e+00 1.9886057128321399e+00 2.2903887470401209e+01 33 -65 65
40 1 6.4915776996378618e+00 6.5779107872484603e+00 2.1653196683951336e+01 -13 42 60
18 1 2.6337772134919515e+00 5.0956178666049201e+00 2.0850997146359134e+01 58 52 38
197 1 1.4133377594833691e+00 4.8955596788801099e+00 1.7774519714799794e+01 9 41 43
440 1 8.6648499405151469e-01 2.5892750897170074e+00 2.1007961875875196e+01 -29 -27 118
353 1 8.0504851592462607e+00 4.3845895196636020e+00 1.9667945661368293e+01 -161 80 96
406 1 9.1693339814957735e+00 2.3225299286488132e+00 1.8557871890551553e+01 46 143 10
282 1 9.6690477764812339e+00 5.2880071207818409e+00 2.1815057051000775e+01 34 28 69
395 1 3.8959864288587367e+00 3.8143579141007709e+00 2.3454645074171061e+01 -33 46 -53
312 1 1.1448093298470901e+01 9.7339115865215593e+00 1.9485680318408413e+01 4 4 26
343 1 2.1598736101422610e+01 6.3345934702911624e+00 1.9776185020105601e+01 -70 18 152
239 1 2.2815605211436543e+00 1.8244583792645133e+00 1.8854392931471097e+01 26 -26 5
341 1 1.9277878629152546e+01 9.2365119158036180e+00 2.0944816838165963e+01 46 -29 51
158 1 2.3782620679001774e+01 3.2752967365410690e-01 2.1399824533025775e+01 -54 59 -86
8 1 1.4651992173117836e+01 9.3974039820555539e+00 2.0237503919677163e+01 -29 8 -20
9 1 6.1287831274404452e+00 1.3332527147624873e-01 2.0630945362785589e+01 -49 33 10
278 1 3.8843679960301052e+00 1.1867446719385429e+01 1.7436992658808958e+01 -81 -76 49
114 1 5.5143871783431750e+00 1.7972135095923196e+00 2.4741192272257244e+01 -4 14 -7
169 1 2.1033649414433949e+01 6.4704191368811950e+00 2.4198856045378260e+01 -19 40 4
379 1 8.5697153399275905e+00 8.4396832618353201e+00 2.4344335793331755e+01 150 -4 68
215 1 2.0296129407784960e+01 1.1587159281261865e+01 1.7818435122590408e+01 6 -127 -35
510 1 1.0719683354998082e+01 8.3463762608744352e-01 2.0430489289641439e+01 -63 143 34
389 1 1.7823432758592213e+00 2.4164399850020692e+00 2.3699874282802867e+01 4 77 -30
87 1 1.2441847234110156e+01 3.3220701591417696e+00 1.7026742680054305e+01 -10 32 76
209 1 4.6752153439212627e+00 9.5231268609078978e-01 1.6636830664501620e+01 1 5 -39
511 1 1.0009963949747972e+01 3.2720375604583443e+00 2.3628019643351230e+01 46 5 102
62 1 9.8252698717298816e+00 1.0993133101664574e+01 2.3980569697211322e+01 81 -33 -51
507 1 1.2907954841956306e+01 7.5358521340366282e+00 2.4262862639443874e+01 -56 28 -16
61 1 2.3629823906201640e+01 9.6920743437257872e-01 2.4339026685319816e+01 96 -53 95
425 1 2.2217886959660671e+01 1.0561728973178420e+01 2.4573334233646445e+01 67 38 -2
394 1 1.6674366004852729e+01 1.7759048820059518e+00 2.4713378880693622e+01 -111 1 -14
134 1 1.5134688406826363e+01 2.9951957359140380e+00 1.6673812344788672e+01 -65 -13 18
380 1 2.2092616870549893e+01 2.1469535806290430e+01 2.8358302577973720e+00 -3 85 51
303 1 6.0567838824309170e+00 2.4196593202296775e+01 3.5950854246548549e+00 29 -13 208
161 1 1.8435384817143007e+01 1.7464372918372451e+01 3.0756224468349314e+00 32 -38 45
387 1 1.6734707493302309e+01 2.4417379141286254e+01 4.7947888581130460e+00 80 -18 133
336 1 2.0798512401344563e+01 1.2823051900066703e+01 7.6548860542040327e+00 35 -13 -139
103 1 1.5636669287984921e+01 2.1042395523047706e+01 4.9305857067113505e+00 -17 35 -52
247 1 1.8235611252639060e+01 2.0224900255929899e+01 1.8579487589829424e+00 18 -27 4
110 1 2.0953153863484999e+01 1.9863260882987078e+01 3.1133024932465436e-01 21 -36 -22
409 1 9.7058324175505106e+00 1.3185249689844778e+01 2.7627038914771922e+00 -42 87 69
243 1 2.3951690878966808e+01 2.2929411906184654e+01 7.0533388093036420e-01 19 -25 -28
473 1 9.3617776401856503e+00 1.6747326850303715e+01 6.5478674448985110e+00 -42 -25 70
497 1 3.2123395890730215e+00 2.2779757867413949e+01 6.7612334639534311e+00 -1 39 27
176 1 5.1486052027815035e+00 1.5470199109788643e+01 4.4491252000437740e+00 -95 -96 -31
167 1 7.6899664820856088e+00 1.6539203751858427e+01 4.2482942171572411e+00 24 -14 -2
478 1 1.0733520156997827e+01 1.4366994348650602e+01 5.2642061498101871e+00 31 -6 29
369 1 1.1184234939413772e+01 1.9576091874579983e+01 4.2532731979947700e+00 4 69 4
368 1 9.9473163951549093e-01 1.5226794863453437e+01 1.6913546138222033e+00 59 -43 45
136 1 1.9392682955864192e+01 1.2717601608006897e+01 5.4700321359382154e-01 37 -69 121
496 1 2.3707923918654150e+00 1.7556614003682135e+01 7.6429311362441030e+00 4 -20 32
382 1 1.3867268863042048e+01 1.4383422947415079e+01 2.8908700294905532e+00 50 -10 64
469 1 2.3483602964829181e+01 1.6873131200232571e+01 6.5624867609899633e+00 37 15 30
54 1 1.5496163327615509e+01 1.8409601919199051e+01 3.9758145109530294e+00 -10 25 49
439 1 1.1092793068522422e+00 1.7995000279843726e+01 5.1888889127545612e+00 35 -42 -64
306 1 5.6645003315996123e-01 2.0821310389045390e+01 3.7449251172006823e+00 -10 55 -75
378 1 1.3151405035419346e+01 1.7858237835082871e+01 5.2989909852646546e+00 12 -21 -53
290 1 2.2901647295956632e+01 1.4080191349580218e+01 6.2594866578278499e+00 -17 -91 -82
156 1 6.4728404804838462e+00 1.8462436581525594e+01 7.1301072350532291e+00 43 34 -17
229 1 1.3529429078465707e+01 2.2941272354046784e+01 1.9051487801726552e+00 44 18 26
421 1 2.2913350163678476e+01 1.4808424877975702e+01 1.9652058715920633e+00 20 -6 85
463 1 8.3374455505281251e+00 2.0731909743304271e+01 2.2173188435789362e+00 -38 32 -25
51 1 2.1807159229203222e+01 2.3240782590267880e+01 8.1363950367275333e+00 35 -11 -53
133 1 1.9289813546495228e+01 1.7181789970189236e+01 6.6837005209738480e+00 -39 69 -49
301 1 1.9831450640173269e+01 1.3155624905598996e+01 3.1751587110588138e+00 122 26 29
381 1 1.4461950625174911e+01 2.4298767453345647e+01 7.1265826888951143e+00 18 -108 26
307 1 5.0562620759635371e+00 1.6395362355746350e+01 6.9646238569914836e+00 -49 104 -10
310 1 6.2745777198547010e+00 2.0680480384142488e+01 5.1952952837861046e+00 -8 -20 20
163 1 1.0954417399119638e+01 2.3692943660280925e+01 4.5542782734308398e+00 -38 -66 8
171 1 1.7714376464907384e+00 2.4116560271846453e+01 1.9813424518704448e+00 -28 34 1
143 1 1.7320245942893781e+01 1.4388514016844628e+01 2.9640883992687925e+00 35 -2 -5
68 1 1.7812967485976337e+01 2.1384906395019744e+01 6.7582098931589618e+00 4 -32 2
422 1 2.8842238940356544e+00 1.3063081363759634e+01 6.8168241404637020e-01 -6 67 69
449 1 6.1221898973118671e+00 1.6427125169530022e+01 9.2151360897867773e-01 -52 80 36
448 1 1.2826678892043750e+01 2.1908333319605180e+01 4.1487349366704498e+00 20 -38 -25
276 1 4.2279244911284382e+00 2.2170996399458037e+01 4.0396113038554926e+00 27 168 -22
74 1 8.2728467512726827e+00 2.2380230049699410e+01 5.4382452277922573e+00 5 60 -7
211 1 2.6035723692985258e+00 2.1200488719749298e+01 1.5298680045576447e+00 -39 13 -14
270 1 1.2097822079540425e+01 1.7477633816225758e+01 8.0079481209395205e+00 18 129 103
268 1 2.7130998338664853e+00 1.4136389380024035e+01 7.2259047116883002e+00 -121 14 -14
464 1 1.2202613429207114e+01 2.2792079148662857e+01 7.2999407687462048e+00 10 21 -15
361 1 2.3508507768773285e+01 1.7725461646439229e+01 7.6574431688200739e-01 -57 112 -14
77 1 5.5769056304010949e+00 1.3617371605708575e+01 1.3353633864271242e+00 55 -19 7
201 1 1.4248751849078005e+01 2.0869722976405114e+01 7.9307156573681850e+00 -110 -47 37
370 1 1.5890742906029187e+01 1.3483417415492342e+01 8.7872662254628930e-01 -28 113 45
309 1 6.6683935181724756e+00 1.8958486847385281e+01 3.5127838008946100e+00 57 65 -45
210 1 5.3589491275929628e+00 1.3126216261584988e+01 6.8938101763482660e+00 -9 0 43
191 1 9.0940606377251960e+00 1.5689870757868011e+01 2.2318170421765329e+00 33 -9 -19
188 1 1.7055067398166297e+01 1.8285576349182136e+01 7.0059182665165824e+00 4 -14 58
452 1 2.1472763321498668e+01 1.4905224677604409e+01 4.2130121566343002e+00 0 0 90
475 1 2.1962694941790662e+01 1.9638652364389905e+01 6.7009733366396480e+00 14 -4 -21
131 1 1.6117781495337564e+01 1.5854597804688852e+01 4.6059367722281683e+00 15 -31 -12
388 1 2.0099080206039122e+00 1.5395942277326981e+01 4.5593523380713021e+00 64 -3 39
109 1 1.8704516960090487e+01 1.6085569003340606e+01 2.5884629990763419e-01 -84 -34 -52
245 1 2.0509499663436134e+01 1.7308126293992878e+01 4.5864303914346936e+00 -32 3 83
474 1 1.8251534893988815e+01 1.4403713029625774e+01 7.1347614434509561e+00 -4 -66 -39
78 1 9.9802071045332230e+00 1.9493215996146702e+01 6.4746679029309329e+00 -8 -55 -17
208 1 8.5945926012352059e-01 2.2869699606568762e+01 5.6788781072698269e+00 35 87 -12
470 1 1.0591897473581836e+01 2.0012719051098109e+01 7.4628873555103292e-01 33 -39 -138
105 1 1.3357802070125528e+01 1.6764346086261238e+01 1.0981330489210641e+00 13 94 2
67 1 2.3126063930585744e+01 1.8457823203343047e+01 3.3632126339730317e+00 -18 -71 -27
224 1 1.5106506172325851e+01 1.9051735004391727e+01 1.0048540948076228e+00 54 -106 13
86 1 1.9845730899176026e+01 2.0932839908243164e+01 4.1333122620637903e+00 -37 -57 91
348 1 1.9301259538457675e+01 2.3362129448259815e+01 5.0968017757680322e+00 -15 -21 15
141 1 4.3413251622469922e+00 1.8642719592243687e+01 1.4211191084820447e+00 88 80 -23
28 1 1.6289195897532274e+01 2.2550362477924917e+01 2.5090449203551293e+00 30 29 19
446 1 1.2988293969799853e+01 1.5018889688850770e+01 5.3460844977271185e+00 24 35 -17
36 1 8.0229948601863299e+00 2.3387128252281194e+01 1.8934176087820127e+00 103 65 107
442 1 1.1077638061768372e+01 1.7601439217953484e+01 2.2419039710179849e+00 16 1 -99
46 1 2.3878839343448501e+01 2.1473768400402644e+01 7.0943876271133304e+00 32 -9 68
238 1 1.4109118767820368e+01 1.3915261891695963e+01 7.4344139627359933e+00 50 7 -5
434 1 1.9226497081837279e+00 1.7302791150426060e+01 3.8861591160900943e-01 49 -27 -84
329 1 2.2225434197499961e+01 2.4380880973681393e+01 2.9633891893798707e+00 8 -130 -66
304 1 5.6189127822738589e+00 1.2577542548823544e+01 4.3400265086506193e+00 -31 -53 128
358 1 1.6192386399741462e+01 1.5766556339393720e+01 8.2022352031916945e+00 -30 97 45
30 1 5.4303083713976175e-01 1.2956447124318780e+01 4.8886091856405427e+00 -80 -4 -21
22 1 1.3306667152833471e+01 2.1000093963528869e+01 1.3595497403534296e-01 -2 -81 80
260 1 1.0576448748540757e+00 1.9123772361860699e+01 1.5462138449458056e+01 -20 7 50
21 1 2.1556906657032147e+01 2.2856060647415802e+01 1.1418377913597626e+01 19 -11 -127
466 1 2.9643829139241213e+00 2.0407191726364747e+01 8.4520549930509894e+00 113 -33 -29
417 1 1.8656561302860741e+01 2.4111188934105254e+01 1.1396889392170964e+01 2 6 -21
468 1 1.1865609468033556e+01 1.7417829481638112e+01 1.3193206459702434e+01 67 15 -46
512 1 1.6724391628031608e+01 1.9005495549957171e+01 1.3552568262732782e+01 -15 -28 83
314 1 1.0878081619919333e+00 2.2830685607398678e+01 1.4318501781626841e+01 -13 25 -12
174 1 2.1502888387848916e+01 2.3277708195125292e+01 1.4366255142039833e+01 5 94 -24