LAMMPS (4 Jan 2019)
Reading data file ...
  orthogonal box = (0.16735 0.16735 0.16735) to (24.6676 24.6676 24.6676)
  1 by 2 by 3 MPI processor grid
  reading atoms ...
  512 atoms
  reading velocities ...
  512 velocities
Neighbor list info ...
  update every 1 steps, delay 0 steps, check yes
  max neighbors/atom: 2000, page size: 100000
  master list distance cutoff = 6.3065
  ghost atom cutoff = 6.3065
  1 neighbor lists, perpetual/occasional/extra = 1 0 0
  (1) pair sw, perpetual
      attributes: full, newton on
      pair build: full/nsq
      stencil: none
      bin: none
Setting up Verlet run ...
  Unit style    : real
  Current step  : 0
  Time step     : 5
Per MPI rank memory allocation (min/avg/max) = 2.697 | 2.697 | 2.698 Mbytes
---------------- Step        0 ----- CPU =      0.0000 (sec) ----------------
Time     = 0.000000 Temp     = 295.177389 Press    = 16122.084211 
PotEng   = -9.818991 KinEng   = 0.878149 Lx       = 24.500299 
Ly       = 24.500299 Lz       = 24.500299 Density  = 1.041469 
Volume   = 14706.664090 
---------------- Step    10000 ----- CPU =      5.7779 (sec) ----------------
Time     = 50000.000000 Temp     = 281.057859 Press    = -615.174716 
PotEng   = -10.216959 KinEng   = 0.836144 Lx       = 24.914982 
Ly       = 24.914982 Lz       = 24.914982 Density  = 0.990327 
Volume   = 15466.133484 
---------------- Step    20000 ----- CPU =     11.4619 (sec) ----------------
Time     = 100000.000000 Temp     = 287.571571 Press    = -649.666059 
PotEng   = -10.256602 KinEng   = 0.855522 Lx       = 24.749235 
Ly       = 24.749235 Lz       = 24.749235 Density  = 1.010358 
Volume   = 15159.516303 
---------------- Step    30000 ----- CPU =     17.1406 (sec) ----------------
Time     = 150000.000000 Temp     = 276.289501 Press    = 238.580052 
PotEng   = -10.167689 KinEng   = 0.821958 Lx       = 24.763741 
Ly       = 24.763741 Lz       = 24.763741 Density  = 1.008583 
Volume   = 15186.187436 
---------------- Step    40000 ----- CPU =     22.8050 (sec) ----------------
Time     = 200000.000000 Temp     = 278.510135 Press    = -623.474154 
PotEng   = -10.172284 KinEng   = 0.828564 Lx       = 24.882515 
Ly       = 24.882515 Lz       = 24.882515 Density  = 0.994209 
Volume   = 15405.749864 
---------------- Step    50000 ----- CPU =     28.4973 (sec) ----------------
Time     = 250000.000000 Temp     = 290.943501 Press    = 223.932189 
PotEng   = -10.131650 KinEng   = 0.865553 Lx       = 24.823631 
Ly       = 24.823631 Lz       = 24.823631 Density  = 1.001301 
Volume   = 15296.635814 
---------------- Step    60000 ----- CPU =     34.1970 (sec) ----------------
Time     = 300000.000000 Temp     = 294.836146 Press    = 882.073834 
PotEng   = -10.140341 KinEng   = 0.877134 Lx       = 24.814363 
Ly       = 24.814363 Lz       = 24.814363 Density  = 1.002423 
Volume   = 15279.509064 
---------------- Step    70000 ----- CPU =     39.9257 (sec) ----------------
Time     = 350000.000000 Temp     = 276.458467 Press    = 114.069713 
PotEng   = -10.172966 KinEng   = 0.822461 Lx       = 24.878992 
Ly       = 24.878992 Lz       = 24.878992 Density  = 0.994631 
Volume   = 15399.206073 
---------------- Step    80000 ----- CPU =     45.6207 (sec) ----------------
Time     = 400000.000000 Temp     = 273.843777 Press    = -423.872029 
PotEng   = -10.181884 KinEng   = 0.814682 Lx       = 24.803235 
Ly       = 24.803235 Lz       = 24.803235 Density  = 1.003773 
Volume   = 15258.962084 
---------------- Step    90000 ----- CPU =     51.2810 (sec) ----------------
Time     = 450000.000000 Temp     = 277.682594 Press    = 387.144213 
PotEng   = -10.180571 KinEng   = 0.826102 Lx       = 24.780791 
Ly       = 24.780791 Lz       = 24.780791 Density  = 1.006503 
Volume   = 15217.576454 
---------------- Step   100000 ----- CPU =     57.0001 (sec) ----------------
Time     = 500000.000000 Temp     = 275.277375 Press    = -443.695367 
PotEng   = -10.171421 KinEng   = 0.818947 Lx       = 24.876731 
Ly       = 24.876731 Lz       = 24.876731 Density  = 0.994903 
Volume   = 15395.007523 
---------------- Step   110000 ----- CPU =     62.6856 (sec) ----------------
Time     = 550000.000000 Temp     = 283.604552 Press    = -193.464534 
PotEng   = -10.152190 KinEng   = 0.843720 Lx       = 24.883531 
Ly       = 24.883531 Lz       = 24.883531 Density  = 0.994087 
Volume   = 15407.636412 
---------------- Step   120000 ----- CPU =     68.3831 (sec) ----------------
Time     = 600000.000000 Temp     = 282.412125 Press    = 635.598588 
PotEng   = -10.127880 KinEng   = 0.840173 Lx       = 24.853788 
Ly       = 24.853788 Lz       = 24.853788 Density  = 0.997660 
Volume   = 15352.452382 
---------------- Step   130000 ----- CPU =     74.0889 (sec) ----------------
Time     = 650000.000000 Temp     = 274.800628 Press    = 54.613830 
PotEng   = -10.211340 KinEng   = 0.817529 Lx       = 24.737518 
Ly       = 24.737518 Lz       = 24.737518 Density  = 1.011794 
Volume   = 15137.994723 
---------------- Step   140000 ----- CPU =     79.8535 (sec) ----------------
Time     = 700000.000000 Temp     = 273.673602 Press    = -691.081338 
PotEng   = -10.155216 KinEng   = 0.814176 Lx       = 24.847723 
Ly       = 24.847723 Lz       = 24.847723 Density  = 0.998391 
Volume   = 15341.216277 
---------------- Step   150000 ----- CPU =     85.5796 (sec) ----------------
Time     = 750000.000000 Temp     = 304.517200 Press    = 263.456264 
PotEng   = -10.188105 KinEng   = 0.905935 Lx       = 24.794875 
Ly       = 24.794875 Lz       = 24.794875 Density  = 1.004789 
Volume   = 15243.536823 
---------------- Step   160000 ----- CPU =     91.2489 (sec) ----------------
Time     = 800000.000000 Temp     = 261.530185 Press    = -839.890041 
PotEng   = -10.157602 KinEng   = 0.778049 Lx       = 24.834076 
Ly       = 24.834076 Lz       = 24.834076 Density  = 1.000038 
Volume   = 15315.952419 
---------------- Step   170000 ----- CPU =     96.9306 (sec) ----------------
Time     = 850000.000000 Temp     = 288.224912 Press    = 656.325110 
PotEng   = -10.247004 KinEng   = 0.857466 Lx       = 24.771733 
Ly       = 24.771733 Lz       = 24.771733 Density  = 1.007607 
Volume   = 15200.894912 
---------------- Step   180000 ----- CPU =    102.5801 (sec) ----------------
Time     = 900000.000000 Temp     = 277.693058 Press    = 248.829078 
PotEng   = -10.228097 KinEng   = 0.826134 Lx       = 24.839847 
Ly       = 24.839847 Lz       = 24.839847 Density  = 0.999341 
Volume   = 15326.632363 
---------------- Step   190000 ----- CPU =    108.2737 (sec) ----------------
Time     = 950000.000000 Temp     = 283.648985 Press    = -42.943155 
PotEng   = -10.181330 KinEng   = 0.843852 Lx       = 24.838991 
Ly       = 24.838991 Lz       = 24.838991 Density  = 0.999444 
Volume   = 15325.048763 
---------------- Step   200000 ----- CPU =    114.0051 (sec) ----------------
Time     = 1000000.000000 Temp     = 275.263593 Press    = 423.961863 
PotEng   = -10.242671 KinEng   = 0.818906 Lx       = 24.744364 
Ly       = 24.744364 Lz       = 24.744364 Density  = 1.010955 
Volume   = 15150.567552 
---------------- Step   210000 ----- CPU =    119.7012 (sec) ----------------
Time     = 1050000.000000 Temp     = 286.226072 Press    = -129.060300 
PotEng   = -10.146914 KinEng   = 0.851519 Lx       = 24.814098 
Ly       = 24.814098 Lz       = 24.814098 Density  = 1.002455 
Volume   = 15279.018826 
---------------- Step   220000 ----- CPU =    125.4044 (sec) ----------------
Time     = 1100000.000000 Temp     = 284.638858 Press    = -158.542602 
PotEng   = -10.082083 KinEng   = 0.846797 Lx       = 24.798174 
Ly       = 24.798174 Lz       = 24.798174 Density  = 1.004388 
Volume   = 15249.622543 
---------------- Step   230000 ----- CPU =    131.1152 (sec) ----------------
Time     = 1150000.000000 Temp     = 274.611693 Press    = -629.949886 
PotEng   = -10.131580 KinEng   = 0.816967 Lx       = 24.809856 
Ly       = 24.809856 Lz       = 24.809856 Density  = 1.002970 
Volume   = 15271.184785 
---------------- Step   240000 ----- CPU =    136.7966 (sec) ----------------
Time     = 1200000.000000 Temp     = 273.698844 Press    = 844.118055 
PotEng   = -10.164369 KinEng   = 0.814251 Lx       = 24.727196 
Ly       = 24.727196 Lz       = 24.727196 Density  = 1.013062 
Volume   = 15119.053022 
---------------- Step   250000 ----- CPU =    142.4852 (sec) ----------------
Time     = 1250000.000000 Temp     = 288.412921 Press    = 1121.771414 
PotEng   = -10.204259 KinEng   = 0.858025 Lx       = 24.757468 
Ly       = 24.757468 Lz       = 24.757468 Density  = 1.009350 
Volume   = 15174.649005 
---------------- Step   260000 ----- CPU =    148.1529 (sec) ----------------
Time     = 1300000.000000 Temp     = 290.539740 Press    = 364.838808 
PotEng   = -10.095227 KinEng   = 0.864352 Lx       = 24.819044 
Ly       = 24.819044 Lz       = 24.819044 Density  = 1.001856 
Volume   = 15288.157792 
---------------- Step   270000 ----- CPU =    153.8427 (sec) ----------------
Time     = 1350000.000000 Temp     = 292.894899 Press    = 307.318945 
PotEng   = -10.228805 KinEng   = 0.871359 Lx       = 24.799881 
Ly       = 24.799881 Lz       = 24.799881 Density  = 1.004180 
Volume   = 15252.772647 
---------------- Step   280000 ----- CPU =    159.5225 (sec) ----------------
Time     = 1400000.000000 Temp     = 294.013896 Press    = -397.355429 
PotEng   = -10.251609 KinEng   = 0.874688 Lx       = 24.862390 
Ly       = 24.862390 Lz       = 24.862390 Density  = 0.996625 
Volume   = 15368.398937 
---------------- Step   290000 ----- CPU =    165.1832 (sec) ----------------
Time     = 1450000.000000 Temp     = 299.593859 Press    = -260.871892 
PotEng   = -10.177171 KinEng   = 0.891288 Lx       = 24.859955 
Ly       = 24.859955 Lz       = 24.859955 Density  = 0.996918 
Volume   = 15363.883894 
---------------- Step   300000 ----- CPU =    170.8753 (sec) ----------------
Time     = 1500000.000000 Temp     = 298.102950 Press    = -571.519542 
PotEng   = -10.127669 KinEng   = 0.886853 Lx       = 24.899044 
Ly       = 24.899044 Lz       = 24.899044 Density  = 0.992230 
Volume   = 15436.470731 
---------------- Step   310000 ----- CPU =    176.5904 (sec) ----------------
Time     = 1550000.000000 Temp     = 274.409790 Press    = -827.596385 
PotEng   = -10.137883 KinEng   = 0.816366 Lx       = 24.910906 
Ly       = 24.910906 Lz       = 24.910906 Density  = 0.990814 
Volume   = 15458.543489 
---------------- Step   320000 ----- CPU =    182.2753 (sec) ----------------
Time     = 1600000.000000 Temp     = 277.239565 Press    = 274.807832 
PotEng   = -10.176293 KinEng   = 0.824784 Lx       = 24.789759 
Ly       = 24.789759 Lz       = 24.789759 Density  = 1.005411 
Volume   = 15234.103126 
---------------- Step   330000 ----- CPU =    187.9628 (sec) ----------------
Time     = 1650000.000000 Temp     = 287.835725 Press    = -589.518450 
PotEng   = -10.119140 KinEng   = 0.856308 Lx       = 24.839005 
Ly       = 24.839005 Lz       = 24.839005 Density  = 0.999443 
Volume   = 15325.073585 
---------------- Step   340000 ----- CPU =    193.6271 (sec) ----------------
Time     = 1700000.000000 Temp     = 289.194648 Press    = 29.288221 
PotEng   = -10.147443 KinEng   = 0.860351 Lx       = 24.836348 
Ly       = 24.836348 Lz       = 24.836348 Density  = 0.999764 
Volume   = 15320.157496 
---------------- Step   350000 ----- CPU =    199.2926 (sec) ----------------
Time     = 1750000.000000 Temp     = 269.256088 Press    = 4.816318 
PotEng   = -10.171317 KinEng   = 0.801034 Lx       = 24.793064 
Ly       = 24.793064 Lz       = 24.793064 Density  = 1.005009 
Volume   = 15240.198024 
---------------- Step   360000 ----- CPU =    204.9467 (sec) ----------------
Time     = 1800000.000000 Temp     = 291.228307 Press    = -788.462746 
PotEng   = -10.208202 KinEng   = 0.866401 Lx       = 24.825261 
Ly       = 24.825261 Lz       = 24.825261 Density  = 1.001104 
Volume   = 15299.648483 
---------------- Step   370000 ----- CPU =    210.6199 (sec) ----------------
Time     = 1850000.000000 Temp     = 272.732894 Press    = -1180.082479 
PotEng   = -10.151245 KinEng   = 0.811377 Lx       = 24.892849 
Ly       = 24.892849 Lz       = 24.892849 Density  = 0.992971 
Volume   = 15424.951837 
---------------- Step   380000 ----- CPU =    216.2926 (sec) ----------------
Time     = 1900000.000000 Temp     = 275.474911 Press    = -400.214005 
PotEng   = -10.192937 KinEng   = 0.819535 Lx       = 24.897241 
Ly       = 24.897241 Lz       = 24.897241 Density  = 0.992446 
Volume   = 15433.118131 
---------------- Step   390000 ----- CPU =    221.9662 (sec) ----------------
Time     = 1950000.000000 Temp     = 294.748498 Press    = -1333.088097 
PotEng   = -10.217282 KinEng   = 0.876873 Lx       = 24.978228 
Ly       = 24.978228 Lz       = 24.978228 Density  = 0.982824 
Volume   = 15584.212925 
---------------- Step   400000 ----- CPU =    227.6482 (sec) ----------------
Time     = 2000000.000000 Temp     = 285.829858 Press    = -129.805646 
PotEng   = -10.212126 KinEng   = 0.850340 Lx       = 24.799506 
Ly       = 24.799506 Lz       = 24.799506 Density  = 1.004226 
Volume   = 15252.080053 
---------------- Step   410000 ----- CPU =    233.3682 (sec) ----------------
Time     = 2050000.000000 Temp     = 272.374119 Press    = 69.671627 
PotEng   = -10.151282 KinEng   = 0.810310 Lx       = 24.848010 
Ly       = 24.848010 Lz       = 24.848010 Density  = 0.998357 
Volume   = 15341.747748 
---------------- Step   420000 ----- CPU =    239.0689 (sec) ----------------
Time     = 2100000.000000 Temp     = 268.220701 Press    = 1011.891950 
PotEng   = -10.167715 KinEng   = 0.797953 Lx       = 24.754782 
Ly       = 24.754782 Lz       = 24.754782 Density  = 1.009679 
Volume   = 15169.710823 
---------------- Step   430000 ----- CPU =    244.7743 (sec) ----------------
Time     = 2150000.000000 Temp     = 276.330673 Press    = 927.930485 
PotEng   = -10.208819 KinEng   = 0.822080 Lx       = 24.783744 
Ly       = 24.783744 Lz       = 24.783744 Density  = 1.006143 
Volume   = 15223.018172 
---------------- Step   440000 ----- CPU =    250.4928 (sec) ----------------
Time     = 2200000.000000 Temp     = 280.830292 Press    = -1520.277816 
PotEng   = -10.157922 KinEng   = 0.835467 Lx       = 24.835962 
Ly       = 24.835962 Lz       = 24.835962 Density  = 0.999810 
Volume   = 15319.443241 
---------------- Step   450000 ----- CPU =    256.2102 (sec) ----------------
Time     = 2250000.000000 Temp     = 283.258831 Press    = 10.170535 
PotEng   = -10.162539 KinEng   = 0.842692 Lx       = 24.830397 
Ly       = 24.830397 Lz       = 24.830397 Density  = 1.000483 
Volume   = 15309.147655 
---------------- Step   460000 ----- CPU =    261.8981 (sec) ----------------
Time     = 2300000.000000 Temp     = 288.184677 Press    = 245.910453 
PotEng   = -10.208293 KinEng   = 0.857346 Lx       = 24.874744 
Ly       = 24.874744 Lz       = 24.874744 Density  = 0.995141 
Volume   = 15391.319381 
---------------- Step   470000 ----- CPU =    267.5739 (sec) ----------------
Time     = 2350000.000000 Temp     = 286.652554 Press    = -62.063564 
PotEng   = -10.166665 KinEng   = 0.852788 Lx       = 24.876922 
Ly       = 24.876922 Lz       = 24.876922 Density  = 0.994880 
Volume   = 15395.362288 
---------------- Step   480000 ----- CPU =    273.2916 (sec) ----------------
Time     = 2400000.000000 Temp     = 258.756862 Press    = 1070.846722 
PotEng   = -10.032742 KinEng   = 0.769799 Lx       = 24.874011 
Ly       = 24.874011 Lz       = 24.874011 Density  = 0.995229 
Volume   = 15389.958450 
---------------- Step   490000 ----- CPU =    279.0160 (sec) ----------------
Time     = 2450000.000000 Temp     = 287.006144 Press    = 67.537719 
PotEng   = -10.187785 KinEng   = 0.853840 Lx       = 24.801836 
Ly       = 24.801836 Lz       = 24.801836 Density  = 1.003943 
Volume   = 15256.380055 
---------------- Step   500000 ----- CPU =    284.7266 (sec) ----------------
Time     = 2500000.000000 Temp     = 291.228846 Press    = 32.951830 
PotEng   = -10.172498 KinEng   = 0.866402 Lx       = 24.767885 
Ly       = 24.767885 Lz       = 24.767885 Density  = 1.008077 
Volume   = 15193.812712 
---------------- Step   510000 ----- CPU =    290.3779 (sec) ----------------
Time     = 2550000.000000 Temp     = 272.115927 Press    = 874.303281 
PotEng   = -10.157426 KinEng   = 0.809542 Lx       = 24.796725 
Ly       = 24.796725 Lz       = 24.796725 Density  = 1.004564 
Volume   = 15246.949201 
---------------- Step   520000 ----- CPU =    296.0452 (sec) ----------------
Time     = 2600000.000000 Temp     = 285.307786 Press    = -10.247421 
PotEng   = -10.114448 KinEng   = 0.848787 Lx       = 24.838540 
Ly       = 24.838540 Lz       = 24.838540 Density  = 0.999499 
Volume   = 15324.213174 
---------------- Step   530000 ----- CPU =    301.7454 (sec) ----------------
Time     = 2650000.000000 Temp     = 273.793059 Press    = 681.475657 
PotEng   = -10.088159 KinEng   = 0.814531 Lx       = 24.844514 
Ly       = 24.844514 Lz       = 24.844514 Density  = 0.998778 
Volume   = 15335.273977 
---------------- Step   540000 ----- CPU =    307.4254 (sec) ----------------
Time     = 2700000.000000 Temp     = 293.754432 Press    = -52.917064 
PotEng   = -10.146079 KinEng   = 0.873916 Lx       = 24.951190 
Ly       = 24.951190 Lz       = 24.951190 Density  = 0.986022 
Volume   = 15533.660358 
---------------- Step   550000 ----- CPU =    313.1064 (sec) ----------------
Time     = 2750000.000000 Temp     = 264.378307 Press    = -1422.055996 
PotEng   = -10.132014 KinEng   = 0.786522 Lx       = 24.883630 
Ly       = 24.883630 Lz       = 24.883630 Density  = 0.994075 
Volume   = 15407.820502 
---------------- Step   560000 ----- CPU =    318.7689 (sec) ----------------
Time     = 2800000.000000 Temp     = 280.151067 Press    = -622.662728 
PotEng   = -10.126488 KinEng   = 0.833446 Lx       = 24.948732 
Ly       = 24.948732 Lz       = 24.948732 Density  = 0.986314 
Volume   = 15529.070332 
---------------- Step   570000 ----- CPU =    324.4754 (sec) ----------------
Time     = 2850000.000000 Temp     = 286.095378 Press    = -493.585045 
PotEng   = -10.169000 KinEng   = 0.851130 Lx       = 24.870915 
Ly       = 24.870915 Lz       = 24.870915 Density  = 0.995601 
Volume   = 15384.213785 
---------------- Step   580000 ----- CPU =    330.1929 (sec) ----------------
Time     = 2900000.000000 Temp     = 284.139221 Press    = 1159.513930 
PotEng   = -10.153816 KinEng   = 0.845311 Lx       = 24.843198 
Ly       = 24.843198 Lz       = 24.843198 Density  = 0.998937 
Volume   = 15332.836994 
---------------- Step   590000 ----- CPU =    335.8756 (sec) ----------------
Time     = 2950000.000000 Temp     = 275.150770 Press    = -711.731132 
PotEng   = -10.100864 KinEng   = 0.818570 Lx       = 24.851750 
Ly       = 24.851750 Lz       = 24.851750 Density  = 0.997906 
Volume   = 15348.676336 
---------------- Step   600000 ----- CPU =    341.5988 (sec) ----------------
Time     = 3000000.000000 Temp     = 266.514624 Press    = -1148.892800 
PotEng   = -10.149148 KinEng   = 0.792878 Lx       = 24.829511 
Ly       = 24.829511 Lz       = 24.829511 Density  = 1.000590 
Volume   = 15307.508087 
---------------- Step   610000 ----- CPU =    347.3181 (sec) ----------------
Time     = 3050000.000000 Temp     = 275.444305 Press    = -902.629711 
PotEng   = -10.150037 KinEng   = 0.819444 Lx       = 24.898874 
Ly       = 24.898874 Lz       = 24.898874 Density  = 0.992251 
Volume   = 15436.154266 
---------------- Step   620000 ----- CPU =    353.0396 (sec) ----------------
Time     = 3100000.000000 Temp     = 261.143957 Press    = -759.988798 
PotEng   = -10.132539 KinEng   = 0.776900 Lx       = 24.850527 
Ly       = 24.850527 Lz       = 24.850527 Density  = 0.998053 
Volume   = 15346.409553 
---------------- Step   630000 ----- CPU =    358.7480 (sec) ----------------
Time     = 3150000.000000 Temp     = 272.856135 Press    = -587.157905 
PotEng   = -10.128541 KinEng   = 0.811744 Lx       = 24.794653 
Ly       = 24.794653 Lz       = 24.794653 Density  = 1.004816 
Volume   = 15243.127581 
---------------- Step   640000 ----- CPU =    364.4201 (sec) ----------------
Time     = 3200000.000000 Temp     = 283.906739 Press    = -227.616083 
PotEng   = -10.145065 KinEng   = 0.844619 Lx       = 24.929266 
Ly       = 24.929266 Lz       = 24.929266 Density  = 0.988626 
Volume   = 15492.749467 
---------------- Step   650000 ----- CPU =    370.1160 (sec) ----------------
Time     = 3250000.000000 Temp     = 281.517771 Press    = -210.351988 
PotEng   = -10.174979 KinEng   = 0.837512 Lx       = 24.886858 
Ly       = 24.886858 Lz       = 24.886858 Density  = 0.993689 
Volume   = 15413.816937 
---------------- Step   660000 ----- CPU =    375.8161 (sec) ----------------
Time     = 3300000.000000 Temp     = 259.118509 Press    = 727.165177 
PotEng   = -10.098037 KinEng   = 0.770874 Lx       = 24.769640 
Ly       = 24.769640 Lz       = 24.769640 Density  = 1.007863 
Volume   = 15197.042151 
---------------- Step   670000 ----- CPU =    381.5647 (sec) ----------------
Time     = 3350000.000000 Temp     = 276.466885 Press    = 523.394944 
PotEng   = -10.223520 KinEng   = 0.822486 Lx       = 24.863882 
Ly       = 24.863882 Lz       = 24.863882 Density  = 0.996446 
Volume   = 15371.166220 
---------------- Step   680000 ----- CPU =    387.2514 (sec) ----------------
Time     = 3400000.000000 Temp     = 290.560557 Press    = 36.421508 
PotEng   = -10.212325 KinEng   = 0.864414 Lx       = 24.698076 
Ly       = 24.698076 Lz       = 24.698076 Density  = 1.016649 
Volume   = 15065.702322 
---------------- Step   690000 ----- CPU =    392.9507 (sec) ----------------
Time     = 3450000.000000 Temp     = 268.165633 Press    = -342.950843 
PotEng   = -10.216587 KinEng   = 0.797790 Lx       = 24.878510 
Ly       = 24.878510 Lz       = 24.878510 Density  = 0.994689 
Volume   = 15398.311742 
---------------- Step   700000 ----- CPU =    398.6404 (sec) ----------------
Time     = 3500000.000000 Temp     = 275.489413 Press    = 230.915424 
PotEng   = -10.179200 KinEng   = 0.819578 Lx       = 24.880621 
Ly       = 24.880621 Lz       = 24.880621 Density  = 0.994436 
Volume   = 15402.230609 
---------------- Step   710000 ----- CPU =    404.3267 (sec) ----------------
Time     = 3550000.000000 Temp     = 255.520634 Press    = -747.033957 
PotEng   = -10.157397 KinEng   = 0.760171 Lx       = 24.871032 
Ly       = 24.871032 Lz       = 24.871032 Density  = 0.995587 
Volume   = 15384.430948 
---------------- Step   720000 ----- CPU =    410.0338 (sec) ----------------
Time     = 3600000.000000 Temp     = 285.618579 Press    = 537.394264 
PotEng   = -10.195917 KinEng   = 0.849712 Lx       = 24.676167 
Ly       = 24.676167 Lz       = 24.676167 Density  = 1.019360 
Volume   = 15025.644475 
---------------- Step   730000 ----- CPU =    415.7684 (sec) ----------------
Time     = 3650000.000000 Temp     = 271.992953 Press    = -288.603789 
PotEng   = -10.115347 KinEng   = 0.809176 Lx       = 24.890899 
Ly       = 24.890899 Lz       = 24.890899 Density  = 0.993205 
Volume   = 15421.326721 
---------------- Step   740000 ----- CPU =    421.4818 (sec) ----------------
Time     = 3700000.000000 Temp     = 273.687728 Press    = -265.722990 
PotEng   = -10.221010 KinEng   = 0.814218 Lx       = 24.854424 
Ly       = 24.854424 Lz       = 24.854424 Density  = 0.997584 
Volume   = 15353.631743 
---------------- Step   750000 ----- CPU =    427.1722 (sec) ----------------
Time     = 3750000.000000 Temp     = 271.277319 Press    = 935.204107 
PotEng   = -10.126343 KinEng   = 0.807047 Lx       = 24.769402 
Ly       = 24.769402 Lz       = 24.769402 Density  = 1.007892 
Volume   = 15196.605351 
---------------- Step   760000 ----- CPU =    432.8749 (sec) ----------------
Time     = 3800000.000000 Temp     = 282.919544 Press    = -878.507564 
PotEng   = -10.232200 KinEng   = 0.841682 Lx       = 24.838521 
Ly       = 24.838521 Lz       = 24.838521 Density  = 0.999501 
Volume   = 15324.178114 
---------------- Step   770000 ----- CPU =    438.6011 (sec) ----------------
Time     = 3850000.000000 Temp     = 282.054870 Press    = 158.586679 
PotEng   = -10.106632 KinEng   = 0.839110 Lx       = 24.862097 
Ly       = 24.862097 Lz       = 24.862097 Density  = 0.996660 
Volume   = 15367.855654 
---------------- Step   780000 ----- CPU =    444.3181 (sec) ----------------
Time     = 3900000.000000 Temp     = 286.253144 Press    = -259.435925 
PotEng   = -10.214938 KinEng   = 0.851600 Lx       = 24.881317 
Ly       = 24.881317 Lz       = 24.881317 Density  = 0.994353 
Volume   = 15403.524613 
---------------- Step   790000 ----- CPU =    449.9565 (sec) ----------------
Time     = 3950000.000000 Temp     = 258.705941 Press    = 0.858956 
PotEng   = -10.166741 KinEng   = 0.769647 Lx       = 24.807732 
Ly       = 24.807732 Lz       = 24.807732 Density  = 1.003227 
Volume   = 15267.262067 
---------------- Step   800000 ----- CPU =    455.6102 (sec) ----------------
Time     = 4000000.000000 Temp     = 272.399281 Press    = 594.568788 
PotEng   = -10.219750 KinEng   = 0.810385 Lx       = 24.816914 
Ly       = 24.816914 Lz       = 24.816914 Density  = 1.002114 
Volume   = 15284.221971 
---------------- Step   810000 ----- CPU =    461.3032 (sec) ----------------
Time     = 4050000.000000 Temp     = 285.436657 Press    = -262.047082 
PotEng   = -10.112312 KinEng   = 0.849171 Lx       = 24.812420 
Ly       = 24.812420 Lz       = 24.812420 Density  = 1.002659 
Volume   = 15275.920213 
---------------- Step   820000 ----- CPU =    467.0131 (sec) ----------------
Time     = 4100000.000000 Temp     = 288.991334 Press    = -531.970316 
PotEng   = -10.137931 KinEng   = 0.859746 Lx       = 24.885997 
Ly       = 24.885997 Lz       = 24.885997 Density  = 0.993792 
Volume   = 15412.217054 
---------------- Step   830000 ----- CPU =    472.7008 (sec) ----------------
Time     = 4150000.000000 Temp     = 297.587658 Press    = -355.467702 
PotEng   = -10.158926 KinEng   = 0.885320 Lx       = 24.836009 
Ly       = 24.836009 Lz       = 24.836009 Density  = 0.999805 
Volume   = 15319.528675 
---------------- Step   840000 ----- CPU =    478.4009 (sec) ----------------
Time     = 4200000.000000 Temp     = 285.108370 Press    = -626.593759 
PotEng   = -10.169978 KinEng   = 0.848194 Lx       = 24.881234 
Ly       = 24.881234 Lz       = 24.881234 Density  = 0.994363 
Volume   = 15403.370434 
---------------- Step   850000 ----- CPU =    484.0888 (sec) ----------------
Time     = 4250000.000000 Temp     = 250.017756 Press    = -120.502170 
PotEng   = -10.157785 KinEng   = 0.743800 Lx       = 24.800543 
Ly       = 24.800543 Lz       = 24.800543 Density  = 1.004100 
Volume   = 15253.994213 
---------------- Step   860000 ----- CPU =    489.7048 (sec) ----------------
Time     = 4300000.000000 Temp     = 272.037665 Press    = -695.869178 
PotEng   = -10.111070 KinEng   = 0.809309 Lx       = 24.890762 
Ly       = 24.890762 Lz       = 24.890762 Density  = 0.993221 
Volume   = 15421.073011 
---------------- Step   870000 ----- CPU =    495.3841 (sec) ----------------
Time     = 4350000.000000 Temp     = 287.472259 Press    = 1223.278979 
PotEng   = -10.155659 KinEng   = 0.855227 Lx       = 24.757357 
Ly       = 24.757357 Lz       = 24.757357 Density  = 1.009364 
Volume   = 15174.446474 
---------------- Step   880000 ----- CPU =    501.1216 (sec) ----------------
Time     = 4400000.000000 Temp     = 278.464457 Press    = -71.164819 
PotEng   = -10.143022 KinEng   = 0.828428 Lx       = 24.798843 
Ly       = 24.798843 Lz       = 24.798843 Density  = 1.004306 
Volume   = 15250.857556 
---------------- Step   890000 ----- CPU =    506.7988 (sec) ----------------
Time     = 4450000.000000 Temp     = 276.247404 Press    = 550.660194 
PotEng   = -10.209605 KinEng   = 0.821833 Lx       = 24.774463 
Ly       = 24.774463 Lz       = 24.774463 Density  = 1.007274 
Volume   = 15205.920992 
---------------- Step   900000 ----- CPU =    512.4816 (sec) ----------------
Time     = 4500000.000000 Temp     = 268.339289 Press    = -328.057099 
PotEng   = -10.031222 KinEng   = 0.798306 Lx       = 24.846452 
Ly       = 24.846452 Lz       = 24.846452 Density  = 0.998544 
Volume   = 15338.862760 
---------------- Step   910000 ----- CPU =    518.2210 (sec) ----------------
Time     = 4550000.000000 Temp     = 275.637639 Press    = -143.319571 
PotEng   = -10.198432 KinEng   = 0.820019 Lx       = 24.799183 
Ly       = 24.799183 Lz       = 24.799183 Density  = 1.004265 
Volume   = 15251.485463 
---------------- Step   920000 ----- CPU =    523.9301 (sec) ----------------
Time     = 4600000.000000 Temp     = 284.847983 Press    = -664.345066 
PotEng   = -10.209427 KinEng   = 0.847419 Lx       = 24.837567 
Ly       = 24.837567 Lz       = 24.837567 Density  = 0.999616 
Volume   = 15322.411838 
---------------- Step   930000 ----- CPU =    529.6253 (sec) ----------------
Time     = 4650000.000000 Temp     = 289.195252 Press    = 1044.602744 
PotEng   = -10.218450 KinEng   = 0.860352 Lx       = 24.775693 
Ly       = 24.775693 Lz       = 24.775693 Density  = 1.007124 
Volume   = 15208.186656 
---------------- Step   940000 ----- CPU =    535.3880 (sec) ----------------
Time     = 4700000.000000 Temp     = 271.107051 Press    = -120.602127 
PotEng   = -10.137956 KinEng   = 0.806540 Lx       = 24.792533 
Ly       = 24.792533 Lz       = 24.792533 Density  = 1.005074 
Volume   = 15239.218250 
---------------- Step   950000 ----- CPU =    541.1019 (sec) ----------------
Time     = 4750000.000000 Temp     = 268.887632 Press    = 652.108906 
PotEng   = -10.137666 KinEng   = 0.799938 Lx       = 24.786859 
Ly       = 24.786859 Lz       = 24.786859 Density  = 1.005764 
Volume   = 15228.758173 
---------------- Step   960000 ----- CPU =    546.8053 (sec) ----------------
Time     = 4800000.000000 Temp     = 262.940650 Press    = 144.644357 
PotEng   = -10.243180 KinEng   = 0.782245 Lx       = 24.813332 
Ly       = 24.813332 Lz       = 24.813332 Density  = 1.002548 
Volume   = 15277.604369 
---------------- Step   970000 ----- CPU =    552.4882 (sec) ----------------
Time     = 4850000.000000 Temp     = 272.349067 Press    = -1045.481283 
PotEng   = -10.159893 KinEng   = 0.810235 Lx       = 24.956260 
Ly       = 24.956260 Lz       = 24.956260 Density  = 0.985421 
Volume   = 15543.131655 
---------------- Step   980000 ----- CPU =    558.2076 (sec) ----------------
Time     = 4900000.000000 Temp     = 283.148542 Press    = -280.557995 
PotEng   = -10.168203 KinEng   = 0.842364 Lx       = 24.686754 
Ly       = 24.686754 Lz       = 24.686754 Density  = 1.018049 
Volume   = 15044.992724 
---------------- Step   990000 ----- CPU =    563.8930 (sec) ----------------
Time     = 4950000.000000 Temp     = 271.164377 Press    = -512.159647 
PotEng   = -10.162016 KinEng   = 0.806711 Lx       = 24.879800 
Ly       = 24.879800 Lz       = 24.879800 Density  = 0.994535 
Volume   = 15400.707068 
---------------- Step  1000000 ----- CPU =    569.5835 (sec) ----------------
Time     = 5000000.000000 Temp     = 296.020610 Press    = 106.589430 
PotEng   = -10.112497 KinEng   = 0.880658 Lx       = 24.930678 
Ly       = 24.930678 Lz       = 24.930678 Density  = 0.988458 
Volume   = 15495.381427 
Loop time of 569.584 on 6 procs for 1000000 steps with 512 atoms

Performance: 758.449 ns/day, 0.032 hours/ns, 1755.668 timesteps/s
97.1% CPU use with 6 MPI tasks x no OpenMP threads

MPI task timing breakdown:
Section |  min time  |  avg time  |  max time  |%varavg| %total
---------------------------------------------------------------
Pair    | 478.87     | 480.3      | 482.54     |   5.5 | 84.32
Neigh   | 14.045     | 14.063     | 14.088     |   0.4 |  2.47
Comm    | 60.613     | 62.911     | 64.215     |  14.9 | 11.05
Output  | 0.0020938  | 0.0035335  | 0.010711   |   5.4 |  0.00
Modify  | 9.9038     | 10.089     | 10.215     |   3.3 |  1.77
Other   |            | 2.222      |            |       |  0.39

Nlocal:    85.3333 ave 89 max 80 min
Histogram: 1 1 0 0 0 0 1 1 0 2
Nghost:    567.5 ave 576 max 559 min
Histogram: 1 1 0 0 0 2 0 1 0 1
Neighs:    0 ave 0 max 0 min
Histogram: 6 0 0 0 0 0 0 0 0 0
FullNghs:  2831 ave 3000 max 2648 min
Histogram: 1 1 0 0 0 1 1 1 0 1

Total # of neighbors = 16986
Ave neighs/atom = 33.1758
Neighbor list builds = 63180
Dangerous builds = 0
Setting up Verlet run ...
  Unit style    : real
  Current step  : 1000000
  Time step     : 5
Per MPI rank memory allocation (min/avg/max) = 2.946 | 2.946 | 2.946 Mbytes
---------------- Step  1000000 ----- CPU =      0.0000 (sec) ----------------
Time     = 5000000.000000 Temp     = 296.020610 Press    = 106.589430 
PotEng   = -10.112497 KinEng   = 0.880658 Lx       = 24.930678 
Ly       = 24.930678 Lz       = 24.930678 Density  = 0.988458 
Volume   = 15495.381427 
---------------- Step  1010000 ----- CPU =      5.6455 (sec) ----------------
Time     = 5050000.000000 Temp     = 300.847842 Press    = 40.044940 
PotEng   = -10.197352 KinEng   = 0.895019 Lx       = 24.911719 
Ly       = 24.911719 Lz       = 24.911719 Density  = 0.990717 
Volume   = 15460.056163 
---------------- Step  1020000 ----- CPU =     11.3029 (sec) ----------------
Time     = 5100000.000000 Temp     = 278.637512 Press    = 131.836519 
PotEng   = -10.194286 KinEng   = 0.828943 Lx       = 24.713323 
Ly       = 24.713323 Lz       = 24.713323 Density  = 1.014769 
Volume   = 15093.621504 
---------------- Step  1030000 ----- CPU =     17.0378 (sec) ----------------
Time     = 5150000.000000 Temp     = 281.701966 Press    = 500.186015 
PotEng   = -10.187336 KinEng   = 0.838060 Lx       = 24.729614 
Ly       = 24.729614 Lz       = 24.729614 Density  = 1.012765 
Volume   = 15123.490429 
---------------- Step  1040000 ----- CPU =     22.7246 (sec) ----------------
Time     = 5200000.000000 Temp     = 273.826391 Press    = -54.595845 
PotEng   = -10.194334 KinEng   = 0.814630 Lx       = 24.771157 
Ly       = 24.771157 Lz       = 24.771157 Density  = 1.007678 
Volume   = 15199.835863 
---------------- Step  1050000 ----- CPU =     28.3861 (sec) ----------------
Time     = 5250000.000000 Temp     = 279.675820 Press    = -703.934983 
PotEng   = -10.095868 KinEng   = 0.832032 Lx       = 24.859845 
Ly       = 24.859845 Lz       = 24.859845 Density  = 0.996931 
Volume   = 15363.680672 
---------------- Step  1060000 ----- CPU =     34.0847 (sec) ----------------
Time     = 5300000.000000 Temp     = 277.599594 Press    = -177.673564 
PotEng   = -10.140627 KinEng   = 0.825856 Lx       = 24.879792 
Ly       = 24.879792 Lz       = 24.879792 Density  = 0.994535 
Volume   = 15400.692823 
---------------- Step  1070000 ----- CPU =     39.7667 (sec) ----------------
Time     = 5350000.000000 Temp     = 280.034357 Press    = -206.239735 
PotEng   = -10.191758 KinEng   = 0.833099 Lx       = 24.942479 
Ly       = 24.942479 Lz       = 24.942479 Density  = 0.987056 
Volume   = 15517.396889 
---------------- Step  1080000 ----- CPU =     45.4618 (sec) ----------------
Time     = 5400000.000000 Temp     = 275.641769 Press    = 100.444180 
PotEng   = -10.121969 KinEng   = 0.820031 Lx       = 24.861487 
Ly       = 24.861487 Lz       = 24.861487 Density  = 0.996734 
Volume   = 15366.724932 
---------------- Step  1090000 ----- CPU =     51.1967 (sec) ----------------
Time     = 5450000.000000 Temp     = 273.933447 Press    = -55.354289 
PotEng   = -10.224246 KinEng   = 0.814949 Lx       = 24.801077 
Ly       = 24.801077 Lz       = 24.801077 Density  = 1.004035 
Volume   = 15254.978883 
---------------- Step  1100000 ----- CPU =     56.8614 (sec) ----------------
Time     = 5500000.000000 Temp     = 278.280112 Press    = 713.871298 
PotEng   = -10.182755 KinEng   = 0.827880 Lx       = 24.839779 
Ly       = 24.839779 Lz       = 24.839779 Density  = 0.999349 
Volume   = 15326.507447 
---------------- Step  1110000 ----- CPU =     62.5789 (sec) ----------------
Time     = 5550000.000000 Temp     = 286.991617 Press    = -34.980453 
PotEng   = -10.174350 KinEng   = 0.853797 Lx       = 24.834268 
Ly       = 24.834268 Lz       = 24.834268 Density  = 1.000015 
Volume   = 15316.307836 
---------------- Step  1120000 ----- CPU =     68.3361 (sec) ----------------
Time     = 5600000.000000 Temp     = 284.948531 Press    = -911.729760 
PotEng   = -10.191741 KinEng   = 0.847719 Lx       = 24.833604 
Ly       = 24.833604 Lz       = 24.833604 Density  = 1.000095 
Volume   = 15315.079375 
---------------- Step  1130000 ----- CPU =     74.0445 (sec) ----------------
Time     = 5650000.000000 Temp     = 276.898073 Press    = -349.576073 
PotEng   = -10.255600 KinEng   = 0.823768 Lx       = 24.838500 
Ly       = 24.838500 Lz       = 24.838500 Density  = 0.999504 
Volume   = 15324.139223 
---------------- Step  1140000 ----- CPU =     79.7058 (sec) ----------------
Time     = 5700000.000000 Temp     = 286.394871 Press    = -47.683041 
PotEng   = -10.110449 KinEng   = 0.852021 Lx       = 24.836354 
Ly       = 24.836354 Lz       = 24.836354 Density  = 0.999763 
Volume   = 15320.167018 
---------------- Step  1150000 ----- CPU =     85.3611 (sec) ----------------
Time     = 5750000.000000 Temp     = 305.474704 Press    = -141.928360 
PotEng   = -10.121539 KinEng   = 0.908784 Lx       = 24.834970 
Ly       = 24.834970 Lz       = 24.834970 Density  = 0.999930 
Volume   = 15317.607657 
---------------- Step  1160000 ----- CPU =     91.0537 (sec) ----------------
Time     = 5800000.000000 Temp     = 297.394479 Press    = 203.787907 
PotEng   = -10.128374 KinEng   = 0.884745 Lx       = 24.813734 
Ly       = 24.813734 Lz       = 24.813734 Density  = 1.002499 
Volume   = 15278.347490 
---------------- Step  1170000 ----- CPU =     96.7172 (sec) ----------------
Time     = 5850000.000000 Temp     = 269.523100 Press    = -231.032298 
PotEng   = -10.161392 KinEng   = 0.801828 Lx       = 24.852516 
Ly       = 24.852516 Lz       = 24.852516 Density  = 0.997814 
Volume   = 15350.096132 
---------------- Step  1180000 ----- CPU =    102.3937 (sec) ----------------
Time     = 5900000.000000 Temp     = 286.423719 Press    = -1223.727187 
PotEng   = -10.179226 KinEng   = 0.852107 Lx       = 24.891543 
Ly       = 24.891543 Lz       = 24.891543 Density  = 0.993128 
Volume   = 15422.523475 
---------------- Step  1190000 ----- CPU =    108.1063 (sec) ----------------
Time     = 5950000.000000 Temp     = 284.825486 Press    = -273.639529 
PotEng   = -10.201701 KinEng   = 0.847352 Lx       = 24.795920 
Ly       = 24.795920 Lz       = 24.795920 Density  = 1.004662 
Volume   = 15245.465543 
---------------- Step  1200000 ----- CPU =    113.8702 (sec) ----------------
Time     = 6000000.000000 Temp     = 273.187081 Press    = -90.232090 
PotEng   = -10.224518 KinEng   = 0.812728 Lx       = 24.861485 
Ly       = 24.861485 Lz       = 24.861485 Density  = 0.996734 
Volume   = 15366.721193 
---------------- Step  1210000 ----- CPU =    119.6006 (sec) ----------------
Time     = 6050000.000000 Temp     = 285.743669 Press    = -82.775214 
PotEng   = -10.172018 KinEng   = 0.850084 Lx       = 24.876080 
Ly       = 24.876080 Lz       = 24.876080 Density  = 0.994981 
Volume   = 15393.800311 
---------------- Step  1220000 ----- CPU =    125.3094 (sec) ----------------
Time     = 6100000.000000 Temp     = 269.892727 Press    = 526.773545 
PotEng   = -10.092308 KinEng   = 0.802928 Lx       = 24.838007 
Ly       = 24.838007 Lz       = 24.838007 Density  = 0.999563 
Volume   = 15323.226325 
---------------- Step  1230000 ----- CPU =    131.0014 (sec) ----------------
Time     = 6150000.000000 Temp     = 270.112743 Press    = -1001.910206 
PotEng   = -10.184905 KinEng   = 0.803582 Lx       = 24.840675 
Ly       = 24.840675 Lz       = 24.840675 Density  = 0.999241 
Volume   = 15328.164908 
---------------- Step  1240000 ----- CPU =    136.6856 (sec) ----------------
Time     = 6200000.000000 Temp     = 269.396035 Press    = 1458.663972 
PotEng   = -10.235115 KinEng   = 0.801450 Lx       = 24.780891 
Ly       = 24.780891 Lz       = 24.780891 Density  = 1.006491 
Volume   = 15217.761244 
---------------- Step  1250000 ----- CPU =    142.3537 (sec) ----------------
Time     = 6250000.000000 Temp     = 286.941140 Press    = -81.703792 
PotEng   = -10.128583 KinEng   = 0.853646 Lx       = 24.852559 
Ly       = 24.852559 Lz       = 24.852559 Density  = 0.997808 
Volume   = 15350.175220 
---------------- Step  1260000 ----- CPU =    148.0622 (sec) ----------------
Time     = 6300000.000000 Temp     = 269.752157 Press    = -320.258848 
PotEng   = -10.181543 KinEng   = 0.802509 Lx       = 24.895526 
Ly       = 24.895526 Lz       = 24.895526 Density  = 0.992651 
Volume   = 15429.927926 
---------------- Step  1270000 ----- CPU =    153.7534 (sec) ----------------
Time     = 6350000.000000 Temp     = 284.615759 Press    = 1302.212860 
PotEng   = -10.226443 KinEng   = 0.846729 Lx       = 24.710873 
Ly       = 24.710873 Lz       = 24.710873 Density  = 1.015071 
Volume   = 15089.131668 
---------------- Step  1280000 ----- CPU =    159.4474 (sec) ----------------
Time     = 6400000.000000 Temp     = 281.806404 Press    = -512.014877 
PotEng   = -10.148213 KinEng   = 0.838371 Lx       = 24.784694 
Ly       = 24.784694 Lz       = 24.784694 Density  = 1.006027 
Volume   = 15224.768606 
---------------- Step  1290000 ----- CPU =    165.1649 (sec) ----------------
Time     = 6450000.000000 Temp     = 275.979312 Press    = -697.218831 
PotEng   = -10.179251 KinEng   = 0.821035 Lx       = 24.776629 
Ly       = 24.776629 Lz       = 24.776629 Density  = 1.007010 
Volume   = 15209.909523 
---------------- Step  1300000 ----- CPU =    170.8573 (sec) ----------------
Time     = 6500000.000000 Temp     = 275.714955 Press    = -743.407072 
PotEng   = -10.138902 KinEng   = 0.820249 Lx       = 24.928099 
Ly       = 24.928099 Lz       = 24.928099 Density  = 0.988765 
Volume   = 15490.572956 
---------------- Step  1310000 ----- CPU =    176.5394 (sec) ----------------
Time     = 6550000.000000 Temp     = 278.917481 Press    = 277.249139 
PotEng   = -10.166417 KinEng   = 0.829776 Lx       = 24.793496 
Ly       = 24.793496 Lz       = 24.793496 Density  = 1.004956 
Volume   = 15240.994150 
---------------- Step  1320000 ----- CPU =    182.2482 (sec) ----------------
Time     = 6600000.000000 Temp     = 279.647525 Press    = -248.138011 
PotEng   = -10.126175 KinEng   = 0.831948 Lx       = 24.778327 
Ly       = 24.778327 Lz       = 24.778327 Density  = 1.006803 
Volume   = 15213.036862 
---------------- Step  1330000 ----- CPU =    187.9510 (sec) ----------------
Time     = 6650000.000000 Temp     = 276.968833 Press    = -39.514388 
PotEng   = -10.173417 KinEng   = 0.823979 Lx       = 24.781427 
Ly       = 24.781427 Lz       = 24.781427 Density  = 1.006425 
Volume   = 15218.748151 
---------------- Step  1340000 ----- CPU =    193.6375 (sec) ----------------
Time     = 6700000.000000 Temp     = 277.806371 Press    = 57.100165 
PotEng   = -10.128482 KinEng   = 0.826471 Lx       = 24.839514 
Ly       = 24.839514 Lz       = 24.839514 Density  = 0.999381 
Volume   = 15326.016172 
---------------- Step  1350000 ----- CPU =    199.3263 (sec) ----------------
Time     = 6750000.000000 Temp     = 290.840963 Press    = -229.518527 
PotEng   = -10.191333 KinEng   = 0.865248 Lx       = 24.838055 
Ly       = 24.838055 Lz       = 24.838055 Density  = 0.999557 
Volume   = 15323.315980 
---------------- Step  1360000 ----- CPU =    205.0330 (sec) ----------------
Time     = 6800000.000000 Temp     = 284.354435 Press    = 1327.130497 
PotEng   = -10.178145 KinEng   = 0.845951 Lx       = 24.842442 
Ly       = 24.842442 Lz       = 24.842442 Density  = 0.999028 
Volume   = 15331.436675 
---------------- Step  1370000 ----- CPU =    210.7188 (sec) ----------------
Time     = 6850000.000000 Temp     = 262.578191 Press    = -1030.336366 
PotEng   = -10.118095 KinEng   = 0.781167 Lx       = 24.864476 
Ly       = 24.864476 Lz       = 24.864476 Density  = 0.996374 
Volume   = 15372.267663 
---------------- Step  1380000 ----- CPU =    216.4813 (sec) ----------------
Time     = 6900000.000000 Temp     = 294.522346 Press    = 95.746208 
PotEng   = -10.194869 KinEng   = 0.876200 Lx       = 24.845907 
Ly       = 24.845907 Lz       = 24.845907 Density  = 0.998610 
Volume   = 15337.853407 
---------------- Step  1390000 ----- CPU =    222.1816 (sec) ----------------
Time     = 6950000.000000 Temp     = 269.456832 Press    = -542.644577 
PotEng   = -10.225267 KinEng   = 0.801631 Lx       = 24.784418 
Ly       = 24.784418 Lz       = 24.784418 Density  = 1.006061 
Volume   = 15224.260232 
---------------- Step  1400000 ----- CPU =    227.9036 (sec) ----------------
Time     = 7000000.000000 Temp     = 278.925976 Press    = 657.499332 
PotEng   = -10.189054 KinEng   = 0.829801 Lx       = 24.764510 
Ly       = 24.764510 Lz       = 24.764510 Density  = 1.008489 
Volume   = 15187.602137 
---------------- Step  1410000 ----- CPU =    233.6196 (sec) ----------------
Time     = 7050000.000000 Temp     = 273.792321 Press    = 239.786498 
PotEng   = -10.153758 KinEng   = 0.814529 Lx       = 24.724918 
Ly       = 24.724918 Lz       = 24.724918 Density  = 1.013342 
Volume   = 15114.876523 
---------------- Step  1420000 ----- CPU =    239.3126 (sec) ----------------
Time     = 7100000.000000 Temp     = 267.749665 Press    = -339.370036 
PotEng   = -10.197835 KinEng   = 0.796552 Lx       = 24.777529 
Ly       = 24.777529 Lz       = 24.777529 Density  = 1.006900 
Volume   = 15211.568464 
---------------- Step  1430000 ----- CPU =    245.0039 (sec) ----------------
Time     = 7150000.000000 Temp     = 275.260688 Press    = -465.313614 
PotEng   = -10.099625 KinEng   = 0.818897 Lx       = 24.887029 
Ly       = 24.887029 Lz       = 24.887029 Density  = 0.993668 
Volume   = 15414.135277 
---------------- Step  1440000 ----- CPU =    250.6877 (sec) ----------------
Time     = 7200000.000000 Temp     = 277.063550 Press    = -1095.484362 
PotEng   = -10.156761 KinEng   = 0.824261 Lx       = 24.871881 
Ly       = 24.871881 Lz       = 24.871881 Density  = 0.995485 
Volume   = 15386.005039 
---------------- Step  1450000 ----- CPU =    256.3499 (sec) ----------------
Time     = 7250000.000000 Temp     = 276.847838 Press    = 748.256102 
PotEng   = -10.143672 KinEng   = 0.823619 Lx       = 24.778102 
Ly       = 24.778102 Lz       = 24.778102 Density  = 1.006831 
Volume   = 15212.622611 
---------------- Step  1460000 ----- CPU =    262.0197 (sec) ----------------
Time     = 7300000.000000 Temp     = 275.350705 Press    = 358.531550 
PotEng   = -10.191037 KinEng   = 0.819165 Lx       = 24.770456 
Ly       = 24.770456 Lz       = 24.770456 Density  = 1.007763 
Volume   = 15198.545317 
---------------- Step  1470000 ----- CPU =    267.6611 (sec) ----------------
Time     = 7350000.000000 Temp     = 273.129165 Press    = 1207.210283 
PotEng   = -10.175191 KinEng   = 0.812556 Lx       = 24.784087 
Ly       = 24.784087 Lz       = 24.784087 Density  = 1.006101 
Volume   = 15223.648695 
---------------- Step  1480000 ----- CPU =    273.3443 (sec) ----------------
Time     = 7400000.000000 Temp     = 274.288265 Press    = 81.229579 
PotEng   = -10.235826 KinEng   = 0.816004 Lx       = 24.755812 
Ly       = 24.755812 Lz       = 24.755812 Density  = 1.009553 
Volume   = 15171.605618 
---------------- Step  1490000 ----- CPU =    279.0159 (sec) ----------------
Time     = 7450000.000000 Temp     = 281.130351 Press    = 688.405069 
PotEng   = -10.174214 KinEng   = 0.836359 Lx       = 24.810332 
Ly       = 24.810332 Lz       = 24.810332 Density  = 1.002912 
Volume   = 15272.064301 
---------------- Step  1500000 ----- CPU =    284.7577 (sec) ----------------
Time     = 7500000.000000 Temp     = 271.331042 Press    = 781.708954 
PotEng   = -10.157049 KinEng   = 0.807207 Lx       = 24.783009 
Ly       = 24.783009 Lz       = 24.783009 Density  = 1.006233 
Volume   = 15221.662638 
---------------- Step  1510000 ----- CPU =    290.4453 (sec) ----------------
Time     = 7550000.000000 Temp     = 260.819747 Press    = -432.449608 
PotEng   = -10.148303 KinEng   = 0.775936 Lx       = 24.809394 
Ly       = 24.809394 Lz       = 24.809394 Density  = 1.003026 
Volume   = 15270.330742 
---------------- Step  1520000 ----- CPU =    296.1129 (sec) ----------------
Time     = 7600000.000000 Temp     = 293.642140 Press    = 1473.418371 
PotEng   = -10.198398 KinEng   = 0.873582 Lx       = 24.821440 
Ly       = 24.821440 Lz       = 24.821440 Density  = 1.001566 
Volume   = 15292.585341 
---------------- Step  1530000 ----- CPU =    301.8342 (sec) ----------------
Time     = 7650000.000000 Temp     = 270.228835 Press    = 175.120948 
PotEng   = -10.145737 KinEng   = 0.803928 Lx       = 24.731377 
Ly       = 24.731377 Lz       = 24.731377 Density  = 1.012548 
Volume   = 15126.724334 
---------------- Step  1540000 ----- CPU =    307.5514 (sec) ----------------
Time     = 7700000.000000 Temp     = 286.364988 Press    = -956.717349 
PotEng   = -10.187299 KinEng   = 0.851932 Lx       = 24.863857 
Ly       = 24.863857 Lz       = 24.863857 Density  = 0.996449 
Volume   = 15371.118787 
---------------- Step  1550000 ----- CPU =    313.2735 (sec) ----------------
Time     = 7750000.000000 Temp     = 285.932013 Press    = 34.410214 
PotEng   = -10.194066 KinEng   = 0.850644 Lx       = 24.820228 
Ly       = 24.820228 Lz       = 24.820228 Density  = 1.001713 
Volume   = 15290.345936 
---------------- Step  1560000 ----- CPU =    318.9359 (sec) ----------------
Time     = 7800000.000000 Temp     = 281.685954 Press    = 1424.737340 
PotEng   = -10.113678 KinEng   = 0.838012 Lx       = 24.812467 
Ly       = 24.812467 Lz       = 24.812467 Density  = 1.002653 
Volume   = 15276.006649 
---------------- Step  1570000 ----- CPU =    324.6249 (sec) ----------------
Time     = 7850000.000000 Temp     = 272.991609 Press    = -142.340631 
PotEng   = -10.156405 KinEng   = 0.812147 Lx       = 24.825304 
Ly       = 24.825304 Lz       = 24.825304 Density  = 1.001098 
Volume   = 15299.729372 
---------------- Step  1580000 ----- CPU =    330.3241 (sec) ----------------
Time     = 7900000.000000 Temp     = 271.815636 Press    = -190.249775 
PotEng   = -10.195177 KinEng   = 0.808648 Lx       = 24.802585 
Ly       = 24.802585 Lz       = 24.802585 Density  = 1.003852 
Volume   = 15257.761459 
---------------- Step  1590000 ----- CPU =    336.0520 (sec) ----------------
Time     = 7950000.000000 Temp     = 276.040034 Press    = -4.641240 
PotEng   = -10.124862 KinEng   = 0.821216 Lx       = 24.842805 
Ly       = 24.842805 Lz       = 24.842805 Density  = 0.998984 
Volume   = 15332.108665 
---------------- Step  1600000 ----- CPU =    341.7520 (sec) ----------------
Time     = 8000000.000000 Temp     = 273.918494 Press    = -459.029909 
PotEng   = -10.189554 KinEng   = 0.814904 Lx       = 24.858342 
Ly       = 24.858342 Lz       = 24.858342 Density  = 0.997112 
Volume   = 15360.893394 
---------------- Step  1610000 ----- CPU =    347.4251 (sec) ----------------
Time     = 8050000.000000 Temp     = 282.340832 Press    = 129.185716 
PotEng   = -10.170516 KinEng   = 0.839961 Lx       = 24.753737 
Ly       = 24.753737 Lz       = 24.753737 Density  = 1.009807 
Volume   = 15167.790872 
---------------- Step  1620000 ----- CPU =    353.1275 (sec) ----------------
Time     = 8100000.000000 Temp     = 285.211954 Press    = 1088.695061 
PotEng   = -10.153714 KinEng   = 0.848502 Lx       = 24.808992 
Ly       = 24.808992 Lz       = 24.808992 Density  = 1.003074 
Volume   = 15269.588945 
---------------- Step  1630000 ----- CPU =    358.8049 (sec) ----------------
Time     = 8150000.000000 Temp     = 271.148501 Press    = -777.759423 
PotEng   = -10.211990 KinEng   = 0.806664 Lx       = 24.813245 
Ly       = 24.813245 Lz       = 24.813245 Density  = 1.002559 
Volume   = 15277.443341 
---------------- Step  1640000 ----- CPU =    364.5476 (sec) ----------------
Time     = 8200000.000000 Temp     = 282.238016 Press    = 614.164931 
PotEng   = -10.162579 KinEng   = 0.839655 Lx       = 24.783515 
Ly       = 24.783515 Lz       = 24.783515 Density  = 1.006171 
Volume   = 15222.595382 
---------------- Step  1650000 ----- CPU =    370.2557 (sec) ----------------
Time     = 8250000.000000 Temp     = 271.674710 Press    = 44.370980 
PotEng   = -10.171402 KinEng   = 0.808229 Lx       = 24.810625 
Ly       = 24.810625 Lz       = 24.810625 Density  = 1.002876 
Volume   = 15272.604640 
---------------- Step  1660000 ----- CPU =    375.9897 (sec) ----------------
Time     = 8300000.000000 Temp     = 295.731907 Press    = 1561.756150 
PotEng   = -10.128918 KinEng   = 0.879799 Lx       = 24.832517 
Ly       = 24.832517 Lz       = 24.832517 Density  = 1.000226 
Volume   = 15313.068302 
---------------- Step  1670000 ----- CPU =    381.6900 (sec) ----------------
Time     = 8350000.000000 Temp     = 270.442273 Press    = 1177.660574 
PotEng   = -10.179374 KinEng   = 0.804563 Lx       = 24.756910 
Ly       = 24.756910 Lz       = 24.756910 Density  = 1.009418 
Volume   = 15173.623389 
---------------- Step  1680000 ----- CPU =    387.3607 (sec) ----------------
Time     = 8400000.000000 Temp     = 279.330985 Press    = 1186.751435 
PotEng   = -10.186460 KinEng   = 0.831006 Lx       = 24.815781 
Ly       = 24.815781 Lz       = 24.815781 Density  = 1.002251 
Volume   = 15282.127986 
---------------- Step  1690000 ----- CPU =    393.0642 (sec) ----------------
Time     = 8450000.000000 Temp     = 276.665548 Press    = -329.004696 
PotEng   = -10.182046 KinEng   = 0.823077 Lx       = 24.876452 
Ly       = 24.876452 Lz       = 24.876452 Density  = 0.994936 
Volume   = 15394.490738 
---------------- Step  1700000 ----- CPU =    398.7534 (sec) ----------------
Time     = 8500000.000000 Temp     = 267.613611 Press    = -505.484111 
PotEng   = -10.135469 KinEng   = 0.796147 Lx       = 24.919503 
Ly       = 24.919503 Lz       = 24.919503 Density  = 0.989788 
Volume   = 15474.554353 
---------------- Step  1710000 ----- CPU =    404.4572 (sec) ----------------
Time     = 8550000.000000 Temp     = 286.583074 Press    = -971.005341 
PotEng   = -10.115778 KinEng   = 0.852581 Lx       = 24.842871 
Ly       = 24.842871 Lz       = 24.842871 Density  = 0.998976 
Volume   = 15332.230047 
---------------- Step  1720000 ----- CPU =    410.2205 (sec) ----------------
Time     = 8600000.000000 Temp     = 276.821930 Press    = 136.080681 
PotEng   = -10.093159 KinEng   = 0.823542 Lx       = 24.854072 
Ly       = 24.854072 Lz       = 24.854072 Density  = 0.997626 
Volume   = 15352.979001 
---------------- Step  1730000 ----- CPU =    415.8932 (sec) ----------------
Time     = 8650000.000000 Temp     = 264.148848 Press    = -269.601447 
PotEng   = -10.147680 KinEng   = 0.785840 Lx       = 24.826753 
Ly       = 24.826753 Lz       = 24.826753 Density  = 1.000923 
Volume   = 15302.407096 
---------------- Step  1740000 ----- CPU =    421.5533 (sec) ----------------
Time     = 8700000.000000 Temp     = 281.351266 Press    = -93.192739 
PotEng   = -10.216817 KinEng   = 0.837017 Lx       = 24.789574 
Ly       = 24.789574 Lz       = 24.789574 Density  = 1.005434 
Volume   = 15233.761990 
---------------- Step  1750000 ----- CPU =    427.2811 (sec) ----------------
Time     = 8750000.000000 Temp     = 281.048109 Press    = 641.071384 
PotEng   = -10.091382 KinEng   = 0.836115 Lx       = 24.828208 
Ly       = 24.828208 Lz       = 24.828208 Density  = 1.000747 
Volume   = 15305.098080 
---------------- Step  1760000 ----- CPU =    432.9564 (sec) ----------------
Time     = 8800000.000000 Temp     = 286.248743 Press    = 107.721960 
PotEng   = -10.181610 KinEng   = 0.851587 Lx       = 24.826634 
Ly       = 24.826634 Lz       = 24.826634 Density  = 1.000938 
Volume   = 15302.188369 
---------------- Step  1770000 ----- CPU =    438.6621 (sec) ----------------
Time     = 8850000.000000 Temp     = 281.633640 Press    = -444.590425 
PotEng   = -10.111161 KinEng   = 0.837857 Lx       = 24.877892 
Ly       = 24.877892 Lz       = 24.877892 Density  = 0.994763 
Volume   = 15397.163725 
---------------- Step  1780000 ----- CPU =    444.2977 (sec) ----------------
Time     = 8900000.000000 Temp     = 296.446639 Press    = 1353.629147 
PotEng   = -10.122631 KinEng   = 0.881925 Lx       = 24.793603 
Ly       = 24.793603 Lz       = 24.793603 Density  = 1.004943 
Volume   = 15241.192088 
---------------- Step  1790000 ----- CPU =    450.0198 (sec) ----------------
Time     = 8950000.000000 Temp     = 283.944816 Press    = -158.665533 
PotEng   = -10.146416 KinEng   = 0.844732 Lx       = 24.843920 
Ly       = 24.843920 Lz       = 24.843920 Density  = 0.998850 
Volume   = 15334.173365 
---------------- Step  1800000 ----- CPU =    455.7154 (sec) ----------------
Time     = 9000000.000000 Temp     = 272.130344 Press    = 1601.118273 
PotEng   = -10.096183 KinEng   = 0.809585 Lx       = 24.813597 
Ly       = 24.813597 Lz       = 24.813597 Density  = 1.002516 
Volume   = 15278.093364 
---------------- Step  1810000 ----- CPU =    461.4747 (sec) ----------------
Time     = 9050000.000000 Temp     = 276.265208 Press    = 315.372146 
PotEng   = -10.126179 KinEng   = 0.821886 Lx       = 24.842819 
Ly       = 24.842819 Lz       = 24.842819 Density  = 0.998983 
Volume   = 15332.134135 
---------------- Step  1820000 ----- CPU =    467.2033 (sec) ----------------
Time     = 9100000.000000 Temp     = 280.329591 Press    = 254.676421 
PotEng   = -10.147790 KinEng   = 0.833977 Lx       = 24.845139 
Ly       = 24.845139 Lz       = 24.845139 Density  = 0.998703 
Volume   = 15336.431205 
---------------- Step  1830000 ----- CPU =    472.9051 (sec) ----------------
Time     = 9150000.000000 Temp     = 276.189022 Press    = -505.135517 
PotEng   = -10.187665 KinEng   = 0.821659 Lx       = 24.887986 
Ly       = 24.887986 Lz       = 24.887986 Density  = 0.993553 
Volume   = 15415.913448 
---------------- Step  1840000 ----- CPU =    478.6126 (sec) ----------------
Time     = 9200000.000000 Temp     = 278.908259 Press    = -169.885318 
PotEng   = -10.193698 KinEng   = 0.829749 Lx       = 24.751864 
Ly       = 24.751864 Lz       = 24.751864 Density  = 1.010036 
Volume   = 15164.347872 
---------------- Step  1850000 ----- CPU =    484.2910 (sec) ----------------
Time     = 9250000.000000 Temp     = 270.179479 Press    = 117.410916 
PotEng   = -10.081656 KinEng   = 0.803781 Lx       = 24.825843 
Ly       = 24.825843 Lz       = 24.825843 Density  = 1.001033 
Volume   = 15300.724278 
---------------- Step  1860000 ----- CPU =    489.9203 (sec) ----------------
Time     = 9300000.000000 Temp     = 291.876500 Press    = 91.838074 
PotEng   = -10.094833 KinEng   = 0.868329 Lx       = 24.966683 
Ly       = 24.966683 Lz       = 24.966683 Density  = 0.984188 
Volume   = 15562.614204 
---------------- Step  1870000 ----- CPU =    495.5968 (sec) ----------------
Time     = 9350000.000000 Temp     = 284.818997 Press    = -231.928359 
PotEng   = -10.212816 KinEng   = 0.847333 Lx       = 24.850016 
Ly       = 24.850016 Lz       = 24.850016 Density  = 0.998115 
Volume   = 15345.463986 
---------------- Step  1880000 ----- CPU =    501.2610 (sec) ----------------
Time     = 9400000.000000 Temp     = 309.291399 Press    = -930.739324 
PotEng   = -10.128494 KinEng   = 0.920138 Lx       = 24.828535 
Ly       = 24.828535 Lz       = 24.828535 Density  = 1.000708 
Volume   = 15305.703872 
---------------- Step  1890000 ----- CPU =    506.9265 (sec) ----------------
Time     = 9450000.000000 Temp     = 268.594536 Press    = -1654.607680 
PotEng   = -10.195823 KinEng   = 0.799066 Lx       = 24.940285 
Ly       = 24.940285 Lz       = 24.940285 Density  = 0.987316 
Volume   = 15513.300854 
---------------- Step  1900000 ----- CPU =    512.5878 (sec) ----------------
Time     = 9500000.000000 Temp     = 283.819476 Press    = 1750.895727 
PotEng   = -10.188094 KinEng   = 0.844360 Lx       = 24.808479 
Ly       = 24.808479 Lz       = 24.808479 Density  = 1.003137 
Volume   = 15268.642362 
---------------- Step  1910000 ----- CPU =    518.2938 (sec) ----------------
Time     = 9550000.000000 Temp     = 290.635437 Press    = -413.509244 
PotEng   = -10.107588 KinEng   = 0.864637 Lx       = 24.894962 
Ly       = 24.894962 Lz       = 24.894962 Density  = 0.992718 
Volume   = 15428.880924 
---------------- Step  1920000 ----- CPU =    523.9766 (sec) ----------------
Time     = 9600000.000000 Temp     = 276.111890 Press    = -2.371433 
PotEng   = -10.152297 KinEng   = 0.821430 Lx       = 24.808143 
Ly       = 24.808143 Lz       = 24.808143 Density  = 1.003177 
Volume   = 15268.020967 
---------------- Step  1930000 ----- CPU =    529.6454 (sec) ----------------
Time     = 9650000.000000 Temp     = 277.487516 Press    = -1057.465893 
PotEng   = -10.167482 KinEng   = 0.825522 Lx       = 24.836458 
Ly       = 24.836458 Lz       = 24.836458 Density  = 0.999750 
Volume   = 15320.359565 
---------------- Step  1940000 ----- CPU =    535.3337 (sec) ----------------
Time     = 9700000.000000 Temp     = 290.561041 Press    = 972.076143 
PotEng   = -10.159383 KinEng   = 0.864416 Lx       = 24.778195 
Ly       = 24.778195 Lz       = 24.778195 Density  = 1.006819 
Volume   = 15212.793968 
---------------- Step  1950000 ----- CPU =    541.0688 (sec) ----------------
Time     = 9750000.000000 Temp     = 286.097690 Press    = -874.804546 
PotEng   = -10.142187 KinEng   = 0.851137 Lx       = 24.930408 
Ly       = 24.930408 Lz       = 24.930408 Density  = 0.988490 
Volume   = 15494.878625 
---------------- Step  1960000 ----- CPU =    546.7754 (sec) ----------------
Time     = 9800000.000000 Temp     = 281.920568 Press    = 815.007345 
PotEng   = -10.067707 KinEng   = 0.838710 Lx       = 24.736372 
Ly       = 24.736372 Lz       = 24.736372 Density  = 1.011935 
Volume   = 15135.891170 
---------------- Step  1970000 ----- CPU =    552.4896 (sec) ----------------
Time     = 9850000.000000 Temp     = 288.433713 Press    = -111.022087 
PotEng   = -10.167269 KinEng   = 0.858087 Lx       = 24.790391 
Ly       = 24.790391 Lz       = 24.790391 Density  = 1.005334 
Volume   = 15235.269971 
---------------- Step  1980000 ----- CPU =    558.2013 (sec) ----------------
Time     = 9900000.000000 Temp     = 279.722578 Press    = 642.622103 
PotEng   = -10.166779 KinEng   = 0.832171 Lx       = 24.796913 
Ly       = 24.796913 Lz       = 24.796913 Density  = 1.004541 
Volume   = 15247.297462 
---------------- Step  1990000 ----- CPU =    563.8411 (sec) ----------------
Time     = 9950000.000000 Temp     = 282.978245 Press    = 227.128427 
PotEng   = -10.176294 KinEng   = 0.841857 Lx       = 24.839057 
Ly       = 24.839057 Lz       = 24.839057 Density  = 0.999437 
Volume   = 15325.169594 
---------------- Step  2000000 ----- CPU =    569.5622 (sec) ----------------
Time     = 10000000.000000 Temp     = 280.158057 Press    = 575.926873 
PotEng   = -10.183067 KinEng   = 0.833467 Lx       = 24.778268 
Ly       = 24.778268 Lz       = 24.778268 Density  = 1.006810 
Volume   = 15212.929172 
---------------- Step  2010000 ----- CPU =    575.2630 (sec) ----------------
Time     = 10050000.000000 Temp     = 266.120948 Press    = -492.729677 
PotEng   = -10.137938 KinEng   = 0.791707 Lx       = 24.842109 
Ly       = 24.842109 Lz       = 24.842109 Density  = 0.999068 
Volume   = 15330.820725 
---------------- Step  2020000 ----- CPU =    580.9928 (sec) ----------------
Time     = 10100000.000000 Temp     = 290.941424 Press    = 920.936223 
PotEng   = -10.218916 KinEng   = 0.865547 Lx       = 24.696632 
Ly       = 24.696632 Lz       = 24.696632 Density  = 1.016828 
Volume   = 15063.059431 
---------------- Step  2030000 ----- CPU =    586.6655 (sec) ----------------
Time     = 10150000.000000 Temp     = 297.251395 Press    = -728.559342 
PotEng   = -10.193129 KinEng   = 0.884319 Lx       = 24.831169 
Ly       = 24.831169 Lz       = 24.831169 Density  = 1.000389 
Volume   = 15310.575093 
---------------- Step  2040000 ----- CPU =    592.3786 (sec) ----------------
Time     = 10200000.000000 Temp     = 279.684418 Press    = 725.848669 
PotEng   = -10.086276 KinEng   = 0.832058 Lx       = 24.801978 
Ly       = 24.801978 Lz       = 24.801978 Density  = 1.003926 
Volume   = 15256.641823 
---------------- Step  2050000 ----- CPU =    598.1130 (sec) ----------------
Time     = 10250000.000000 Temp     = 277.746383 Press    = 1.944081 
PotEng   = -10.164792 KinEng   = 0.826292 Lx       = 24.791281 
Ly       = 24.791281 Lz       = 24.791281 Density  = 1.005226 
Volume   = 15236.910613 
---------------- Step  2060000 ----- CPU =    603.8225 (sec) ----------------
Time     = 10300000.000000 Temp     = 265.182465 Press    = -254.858565 
PotEng   = -10.162698 KinEng   = 0.788915 Lx       = 24.795305 
Ly       = 24.795305 Lz       = 24.795305 Density  = 1.004737 
Volume   = 15244.329918 
---------------- Step  2070000 ----- CPU =    609.5150 (sec) ----------------
Time     = 10350000.000000 Temp     = 275.343501 Press    = -1457.631767 
PotEng   = -10.081094 KinEng   = 0.819144 Lx       = 24.944071 
Ly       = 24.944071 Lz       = 24.944071 Density  = 0.986867 
Volume   = 15520.366740 
---------------- Step  2080000 ----- CPU =    615.1829 (sec) ----------------
Time     = 10400000.000000 Temp     = 298.532199 Press    = 755.217853 
PotEng   = -10.251520 KinEng   = 0.888130 Lx       = 24.847108 
Ly       = 24.847108 Lz       = 24.847108 Density  = 0.998465 
Volume   = 15340.077458 
---------------- Step  2090000 ----- CPU =    620.8425 (sec) ----------------
Time     = 10450000.000000 Temp     = 280.058104 Press    = -81.951844 
PotEng   = -10.233667 KinEng   = 0.833170 Lx       = 24.880625 
Ly       = 24.880625 Lz       = 24.880625 Density  = 0.994436 
Volume   = 15402.238707 
---------------- Step  2100000 ----- CPU =    626.5543 (sec) ----------------
Time     = 10500000.000000 Temp     = 284.398809 Press    = 181.995880 
PotEng   = -10.169264 KinEng   = 0.846083 Lx       = 24.762662 
Ly       = 24.762662 Lz       = 24.762662 Density  = 1.008715 
Volume   = 15184.202815 
---------------- Step  2110000 ----- CPU =    632.2790 (sec) ----------------
Time     = 10550000.000000 Temp     = 274.550579 Press    = 253.064190 
PotEng   = -10.208498 KinEng   = 0.816785 Lx       = 24.801113 
Ly       = 24.801113 Lz       = 24.801113 Density  = 1.004031 
Volume   = 15255.045984 
---------------- Step  2120000 ----- CPU =    637.9751 (sec) ----------------
Time     = 10600000.000000 Temp     = 271.486839 Press    = -609.504438 
PotEng   = -10.149785 KinEng   = 0.807670 Lx       = 24.912412 
Ly       = 24.912412 Lz       = 24.912412 Density  = 0.990634 
Volume   = 15461.347982 
---------------- Step  2130000 ----- CPU =    643.6984 (sec) ----------------
Time     = 10650000.000000 Temp     = 305.635527 Press    = 469.290364 
PotEng   = -10.204697 KinEng   = 0.909262 Lx       = 24.772018 
Ly       = 24.772018 Lz       = 24.772018 Density  = 1.007573 
Volume   = 15201.419294 
---------------- Step  2140000 ----- CPU =    649.3770 (sec) ----------------
Time     = 10700000.000000 Temp     = 279.641638 Press    = -703.088163 
PotEng   = -10.136538 KinEng   = 0.831931 Lx       = 24.866444 
Ly       = 24.866444 Lz       = 24.866444 Density  = 0.996138 
Volume   = 15375.917818 
---------------- Step  2150000 ----- CPU =    655.0669 (sec) ----------------
Time     = 10750000.000000 Temp     = 274.015882 Press    = -488.570816 
PotEng   = -10.176586 KinEng   = 0.815194 Lx       = 24.763420 
Ly       = 24.763420 Lz       = 24.763420 Density  = 1.008623 
Volume   = 15185.596804 
---------------- Step  2160000 ----- CPU =    660.7864 (sec) ----------------
Time     = 10800000.000000 Temp     = 265.554690 Press    = -53.229740 
PotEng   = -10.236150 KinEng   = 0.790022 Lx       = 24.824389 
Ly       = 24.824389 Lz       = 24.824389 Density  = 1.001209 
Volume   = 15298.037603 
---------------- Step  2170000 ----- CPU =    666.4661 (sec) ----------------
Time     = 10850000.000000 Temp     = 283.654454 Press    = 365.933228 
PotEng   = -10.226238 KinEng   = 0.843869 Lx       = 24.808551 
Ly       = 24.808551 Lz       = 24.808551 Density  = 1.003128 
Volume   = 15268.774997 
---------------- Step  2180000 ----- CPU =    672.2165 (sec) ----------------
Time     = 10900000.000000 Temp     = 294.078244 Press    = 497.512470 
PotEng   = -10.148733 KinEng   = 0.874879 Lx       = 24.825751 
Ly       = 24.825751 Lz       = 24.825751 Density  = 1.001044 
Volume   = 15300.554895 
---------------- Step  2190000 ----- CPU =    677.9362 (sec) ----------------
Time     = 10950000.000000 Temp     = 290.142489 Press    = -1366.644075 
PotEng   = -10.176196 KinEng   = 0.863170 Lx       = 24.854524 
Ly       = 24.854524 Lz       = 24.854524 Density  = 0.997572 
Volume   = 15353.815758 
---------------- Step  2200000 ----- CPU =    683.6084 (sec) ----------------
Time     = 11000000.000000 Temp     = 278.543959 Press    = 1429.658734 
PotEng   = -10.211106 KinEng   = 0.828665 Lx       = 24.632159 
Ly       = 24.632159 Lz       = 24.632159 Density  = 1.024833 
Volume   = 14945.397134 
---------------- Step  2210000 ----- CPU =    689.3170 (sec) ----------------
Time     = 11050000.000000 Temp     = 286.344110 Press    = -509.220553 
PotEng   = -10.116003 KinEng   = 0.851870 Lx       = 24.851089 
Ly       = 24.851089 Lz       = 24.851089 Density  = 0.997986 
Volume   = 15347.451661 
---------------- Step  2220000 ----- CPU =    695.0319 (sec) ----------------
Time     = 11100000.000000 Temp     = 279.778301 Press    = 466.721510 
PotEng   = -10.160148 KinEng   = 0.832337 Lx       = 24.746458 
Ly       = 24.746458 Lz       = 24.746458 Density  = 1.010698 
Volume   = 15154.413654 
---------------- Step  2230000 ----- CPU =    700.7867 (sec) ----------------
Time     = 11150000.000000 Temp     = 299.646981 Press    = -67.908457 
PotEng   = -10.230566 KinEng   = 0.891446 Lx       = 24.815644 
Ly       = 24.815644 Lz       = 24.815644 Density  = 1.002268 
Volume   = 15281.875217 
---------------- Step  2240000 ----- CPU =    706.4532 (sec) ----------------
Time     = 11200000.000000 Temp     = 292.356803 Press    = 475.775467 
PotEng   = -10.093706 KinEng   = 0.869758 Lx       = 24.771629 
Ly       = 24.771629 Lz       = 24.771629 Density  = 1.007620 
Volume   = 15200.703554 
---------------- Step  2250000 ----- CPU =    712.2002 (sec) ----------------
Time     = 11250000.000000 Temp     = 274.606061 Press    = 304.792137 
PotEng   = -10.155626 KinEng   = 0.816950 Lx       = 24.870731 
Ly       = 24.870731 Lz       = 24.870731 Density  = 0.995623 
Volume   = 15383.872184 
---------------- Step  2260000 ----- CPU =    717.8512 (sec) ----------------
Time     = 11300000.000000 Temp     = 278.676286 Press    = 174.701298 
PotEng   = -10.155646 KinEng   = 0.829059 Lx       = 24.858459 
Ly       = 24.858459 Lz       = 24.858459 Density  = 0.997098 
Volume   = 15361.110104 
---------------- Step  2270000 ----- CPU =    723.5477 (sec) ----------------
Time     = 11350000.000000 Temp     = 299.515147 Press    = -307.427881 
PotEng   = -10.184148 KinEng   = 0.891054 Lx       = 24.884933 
Ly       = 24.884933 Lz       = 24.884933 Density  = 0.993919 
Volume   = 15410.240992 
---------------- Step  2280000 ----- CPU =    729.2444 (sec) ----------------
Time     = 11400000.000000 Temp     = 276.917137 Press    = 649.468144 
PotEng   = -10.200998 KinEng   = 0.823825 Lx       = 24.782990 
Ly       = 24.782990 Lz       = 24.782990 Density  = 1.006235 
Volume   = 15221.628102 
---------------- Step  2290000 ----- CPU =    734.9207 (sec) ----------------
Time     = 11450000.000000 Temp     = 265.606969 Press    = -267.237388 
PotEng   = -10.202580 KinEng   = 0.790178 Lx       = 24.825367 
Ly       = 24.825367 Lz       = 24.825367 Density  = 1.001091 
Volume   = 15299.845615 
---------------- Step  2300000 ----- CPU =    740.6590 (sec) ----------------
Time     = 11500000.000000 Temp     = 288.674026 Press    = 279.049969 
PotEng   = -10.179000 KinEng   = 0.858802 Lx       = 24.759230 
Ly       = 24.759230 Lz       = 24.759230 Density  = 1.009135 
Volume   = 15177.889776 
---------------- Step  2310000 ----- CPU =    746.3877 (sec) ----------------
Time     = 11550000.000000 Temp     = 285.935394 Press    = -500.119716 
PotEng   = -10.116901 KinEng   = 0.850654 Lx       = 24.876596 
Ly       = 24.876596 Lz       = 24.876596 Density  = 0.994919 
Volume   = 15394.757315 
---------------- Step  2320000 ----- CPU =    752.1153 (sec) ----------------
Time     = 11600000.000000 Temp     = 262.725330 Press    = -21.777812 
PotEng   = -10.111354 KinEng   = 0.781605 Lx       = 24.930863 
Ly       = 24.930863 Lz       = 24.930863 Density  = 0.988436 
Volume   = 15495.726232 
---------------- Step  2330000 ----- CPU =    757.7760 (sec) ----------------
Time     = 11650000.000000 Temp     = 282.913026 Press    = 304.926166 
PotEng   = -10.174046 KinEng   = 0.841663 Lx       = 24.923529 
Ly       = 24.923529 Lz       = 24.923529 Density  = 0.989309 
Volume   = 15482.054771 
---------------- Step  2340000 ----- CPU =    763.4828 (sec) ----------------
Time     = 11700000.000000 Temp     = 283.247613 Press    = -434.816771 
PotEng   = -10.171009 KinEng   = 0.842658 Lx       = 24.933522 
Ly       = 24.933522 Lz       = 24.933522 Density  = 0.988120 
Volume   = 15500.683990 
---------------- Step  2350000 ----- CPU =    769.1478 (sec) ----------------
Time     = 11750000.000000 Temp     = 275.967161 Press    = -384.428214 
PotEng   = -10.183756 KinEng   = 0.820999 Lx       = 24.889573 
Ly       = 24.889573 Lz       = 24.889573 Density  = 0.993363 
Volume   = 15418.862329 
---------------- Step  2360000 ----- CPU =    774.8417 (sec) ----------------
Time     = 11800000.000000 Temp     = 276.536162 Press    = -339.950950 
PotEng   = -10.145586 KinEng   = 0.822692 Lx       = 24.829967 
Ly       = 24.829967 Lz       = 24.829967 Density  = 1.000535 
Volume   = 15308.350987 
---------------- Step  2370000 ----- CPU =    780.5538 (sec) ----------------
Time     = 11850000.000000 Temp     = 275.235958 Press    = 87.412568 
PotEng   = -10.145749 KinEng   = 0.818824 Lx       = 24.794251 
Ly       = 24.794251 Lz       = 24.794251 Density  = 1.004865 
Volume   = 15242.387174 
---------------- Step  2380000 ----- CPU =    786.2665 (sec) ----------------
Time     = 11900000.000000 Temp     = 283.266146 Press    = -442.767953 
PotEng   = -10.149597 KinEng   = 0.842713 Lx       = 24.799072 
Ly       = 24.799072 Lz       = 24.799072 Density  = 1.004279 
Volume   = 15251.279450 
---------------- Step  2390000 ----- CPU =    791.9800 (sec) ----------------
Time     = 11950000.000000 Temp     = 279.619474 Press    = -355.790221 
PotEng   = -10.165180 KinEng   = 0.831865 Lx       = 24.788143 
Ly       = 24.788143 Lz       = 24.788143 Density  = 1.005608 
Volume   = 15231.125439 
---------------- Step  2400000 ----- CPU =    797.6920 (sec) ----------------
Time     = 12000000.000000 Temp     = 272.069512 Press    = 1160.617548 
PotEng   = -10.228205 KinEng   = 0.809404 Lx       = 24.749936 
Ly       = 24.749936 Lz       = 24.749936 Density  = 1.010272 
Volume   = 15160.803446 
---------------- Step  2410000 ----- CPU =    803.3444 (sec) ----------------
Time     = 12050000.000000 Temp     = 274.653900 Press    = 644.271346 
PotEng   = -10.206955 KinEng   = 0.817092 Lx       = 24.839011 
Ly       = 24.839011 Lz       = 24.839011 Density  = 0.999442 
Volume   = 15325.085040 
---------------- Step  2420000 ----- CPU =    808.9988 (sec) ----------------
Time     = 12100000.000000 Temp     = 284.780125 Press    = -244.541158 
PotEng   = -10.165494 KinEng   = 0.847217 Lx       = 24.919007 
Ly       = 24.919007 Lz       = 24.919007 Density  = 0.989848 
Volume   = 15473.629844 
---------------- Step  2430000 ----- CPU =    814.7417 (sec) ----------------
Time     = 12150000.000000 Temp     = 275.239679 Press    = -209.603082 
PotEng   = -10.135642 KinEng   = 0.818835 Lx       = 24.752759 
Ly       = 24.752759 Lz       = 24.752759 Density  = 1.009926 
Volume   = 15165.992846 
---------------- Step  2440000 ----- CPU =    820.4835 (sec) ----------------
Time     = 12200000.000000 Temp     = 302.671892 Press    = 439.697956 
PotEng   = -10.212469 KinEng   = 0.900445 Lx       = 24.775667 
Ly       = 24.775667 Lz       = 24.775667 Density  = 1.007127 
Volume   = 15208.138776 
---------------- Step  2450000 ----- CPU =    826.1916 (sec) ----------------
Time     = 12250000.000000 Temp     = 271.393395 Press    = -464.387364 
PotEng   = -10.178675 KinEng   = 0.807392 Lx       = 24.813435 
Ly       = 24.813435 Lz       = 24.813435 Density  = 1.002536 
Volume   = 15277.794081 
---------------- Step  2460000 ----- CPU =    831.9323 (sec) ----------------
Time     = 12300000.000000 Temp     = 260.365947 Press    = -921.897086 
PotEng   = -10.084640 KinEng   = 0.774586 Lx       = 24.938256 
Ly       = 24.938256 Lz       = 24.938256 Density  = 0.987557 
Volume   = 15509.515719 
---------------- Step  2470000 ----- CPU =    837.6354 (sec) ----------------
Time     = 12350000.000000 Temp     = 295.322077 Press    = 961.153309 
PotEng   = -10.149200 KinEng   = 0.878580 Lx       = 24.725994 
Ly       = 24.725994 Lz       = 24.725994 Density  = 1.013209 
Volume   = 15116.849852 
---------------- Step  2480000 ----- CPU =    843.3318 (sec) ----------------
Time     = 12400000.000000 Temp     = 278.312766 Press    = -611.818280 
PotEng   = -10.143652 KinEng   = 0.827977 Lx       = 24.828834 
Ly       = 24.828834 Lz       = 24.828834 Density  = 1.000672 
Volume   = 15306.256019 
---------------- Step  2490000 ----- CPU =    849.0309 (sec) ----------------
Time     = 12450000.000000 Temp     = 284.919179 Press    = -1367.785258 
PotEng   = -10.087931 KinEng   = 0.847631 Lx       = 24.933418 
Ly       = 24.933418 Lz       = 24.933418 Density  = 0.988132 
Volume   = 15500.491646 
---------------- Step  2500000 ----- CPU =    854.7263 (sec) ----------------
Time     = 12500000.000000 Temp     = 277.927459 Press    = -704.150676 
PotEng   = -10.211967 KinEng   = 0.826831 Lx       = 24.851236 
Ly       = 24.851236 Lz       = 24.851236 Density  = 0.997968 
Volume   = 15347.723988 
---------------- Step  2510000 ----- CPU =    860.3898 (sec) ----------------
Time     = 12550000.000000 Temp     = 270.182316 Press    = -43.894347 
PotEng   = -10.183762 KinEng   = 0.803789 Lx       = 24.821858 
Ly       = 24.821858 Lz       = 24.821858 Density  = 1.001516 
Volume   = 15293.357415 
---------------- Step  2520000 ----- CPU =    866.1090 (sec) ----------------
Time     = 12600000.000000 Temp     = 285.235673 Press    = -475.754211 
PotEng   = -10.185365 KinEng   = 0.848573 Lx       = 24.777467 
Ly       = 24.777467 Lz       = 24.777467 Density  = 1.006908 
Volume   = 15211.453099 
---------------- Step  2530000 ----- CPU =    871.8057 (sec) ----------------
Time     = 12650000.000000 Temp     = 282.152390 Press    = 145.361196 
PotEng   = -10.269720 KinEng   = 0.839400 Lx       = 24.833407 
Ly       = 24.833407 Lz       = 24.833407 Density  = 1.000119 
Volume   = 15314.715838 
---------------- Step  2540000 ----- CPU =    877.4717 (sec) ----------------
Time     = 12700000.000000 Temp     = 262.663702 Press    = 990.040646 
PotEng   = -10.122296 KinEng   = 0.781421 Lx       = 24.711303 
Ly       = 24.711303 Lz       = 24.711303 Density  = 1.015018 
Volume   = 15089.920660 
---------------- Step  2550000 ----- CPU =    883.2063 (sec) ----------------
Time     = 12750000.000000 Temp     = 275.784347 Press    = -94.555057 
PotEng   = -10.130418 KinEng   = 0.820455 Lx       = 24.802518 
Ly       = 24.802518 Lz       = 24.802518 Density  = 1.003860 
Volume   = 15257.638696 
---------------- Step  2560000 ----- CPU =    888.8563 (sec) ----------------
Time     = 12800000.000000 Temp     = 280.667893 Press    = -266.185285 
PotEng   = -10.141237 KinEng   = 0.834984 Lx       = 24.838550 
Ly       = 24.838550 Lz       = 24.838550 Density  = 0.999498 
Volume   = 15324.232344 
---------------- Step  2570000 ----- CPU =    894.5435 (sec) ----------------
Time     = 12850000.000000 Temp     = 283.046295 Press    = 47.437368 
PotEng   = -10.175973 KinEng   = 0.842059 Lx       = 24.799585 
Ly       = 24.799585 Lz       = 24.799585 Density  = 1.004216 
Volume   = 15252.225778 
---------------- Step  2580000 ----- CPU =    900.2105 (sec) ----------------
Time     = 12900000.000000 Temp     = 280.121799 Press    = 770.429308 
PotEng   = -10.177498 KinEng   = 0.833359 Lx       = 24.789720 
Ly       = 24.789720 Lz       = 24.789720 Density  = 1.005416 
Volume   = 15234.031247 
---------------- Step  2590000 ----- CPU =    905.9000 (sec) ----------------
Time     = 12950000.000000 Temp     = 271.123371 Press    = 835.624784 
PotEng   = -10.175890 KinEng   = 0.806589 Lx       = 24.878639 
Ly       = 24.878639 Lz       = 24.878639 Density  = 0.994674 
Volume   = 15398.550256 
---------------- Step  2600000 ----- CPU =    911.5807 (sec) ----------------
Time     = 13000000.000000 Temp     = 278.683963 Press    = -732.240737 
PotEng   = -10.168615 KinEng   = 0.829081 Lx       = 24.854883 
Ly       = 24.854883 Lz       = 24.854883 Density  = 0.997529 
Volume   = 15354.482381 
---------------- Step  2610000 ----- CPU =    917.2899 (sec) ----------------
Time     = 13050000.000000 Temp     = 267.669934 Press    = 416.517837 
PotEng   = -10.111643 KinEng   = 0.796315 Lx       = 24.841099 
Ly       = 24.841099 Lz       = 24.841099 Density  = 0.999190 
Volume   = 15328.950401 
---------------- Step  2620000 ----- CPU =    923.0298 (sec) ----------------
Time     = 13100000.000000 Temp     = 278.760259 Press    = -674.447684 
PotEng   = -10.212116 KinEng   = 0.829308 Lx       = 24.783668 
Ly       = 24.783668 Lz       = 24.783668 Density  = 1.006152 
Volume   = 15222.877802 
---------------- Step  2630000 ----- CPU =    928.7048 (sec) ----------------
Time     = 13150000.000000 Temp     = 287.957180 Press    = 604.650121 
PotEng   = -10.123869 KinEng   = 0.856669 Lx       = 24.817361 
Ly       = 24.817361 Lz       = 24.817361 Density  = 1.002060 
Volume   = 15285.046917 
---------------- Step  2640000 ----- CPU =    934.4151 (sec) ----------------
Time     = 13200000.000000 Temp     = 291.237305 Press    = 33.788782 
PotEng   = -10.094240 KinEng   = 0.866428 Lx       = 24.783579 
Ly       = 24.783579 Lz       = 24.783579 Density  = 1.006163 
Volume   = 15222.713891 
---------------- Step  2650000 ----- CPU =    940.1331 (sec) ----------------
Time     = 13250000.000000 Temp     = 277.170716 Press    = -523.843257 
PotEng   = -10.178309 KinEng   = 0.824580 Lx       = 24.844433 
Ly       = 24.844433 Lz       = 24.844433 Density  = 0.998788 
Volume   = 15335.123331 
---------------- Step  2660000 ----- CPU =    945.8043 (sec) ----------------
Time     = 13300000.000000 Temp     = 290.248454 Press    = 90.450507 
PotEng   = -10.110221 KinEng   = 0.863486 Lx       = 24.848281 
Ly       = 24.848281 Lz       = 24.848281 Density  = 0.998324 
Volume   = 15342.248915 
---------------- Step  2670000 ----- CPU =    951.5069 (sec) ----------------
Time     = 13350000.000000 Temp     = 282.247618 Press    = 1377.724965 
PotEng   = -10.201351 KinEng   = 0.839683 Lx       = 24.790391 
Ly       = 24.790391 Lz       = 24.790391 Density  = 1.005334 
Volume   = 15235.269968 
---------------- Step  2680000 ----- CPU =    957.1492 (sec) ----------------
Time     = 13400000.000000 Temp     = 280.588782 Press    = -591.854100 
PotEng   = -10.165791 KinEng   = 0.834748 Lx       = 24.888533 
Ly       = 24.888533 Lz       = 24.888533 Density  = 0.993488 
Volume   = 15416.930662 
---------------- Step  2690000 ----- CPU =    962.8657 (sec) ----------------
Time     = 13450000.000000 Temp     = 278.265452 Press    = 217.204099 
PotEng   = -10.146349 KinEng   = 0.827836 Lx       = 24.819989 
Ly       = 24.819989 Lz       = 24.819989 Density  = 1.001742 
Volume   = 15289.903513 
---------------- Step  2700000 ----- CPU =    968.5643 (sec) ----------------
Time     = 13500000.000000 Temp     = 275.147965 Press    = 439.737314 
PotEng   = -10.167549 KinEng   = 0.818562 Lx       = 24.803234 
Ly       = 24.803234 Lz       = 24.803234 Density  = 1.003773 
Volume   = 15258.959260 
---------------- Step  2710000 ----- CPU =    974.2749 (sec) ----------------
Time     = 13550000.000000 Temp     = 273.016663 Press    = 293.209416 
PotEng   = -10.192748 KinEng   = 0.812221 Lx       = 24.827372 
Ly       = 24.827372 Lz       = 24.827372 Density  = 1.000848 
Volume   = 15303.552340 
---------------- Step  2720000 ----- CPU =    980.0032 (sec) ----------------
Time     = 13600000.000000 Temp     = 274.949357 Press    = 475.604747 
PotEng   = -10.153026 KinEng   = 0.817971 Lx       = 24.817000 
Ly       = 24.817000 Lz       = 24.817000 Density  = 1.002104 
Volume   = 15284.380807 
---------------- Step  2730000 ----- CPU =    985.6954 (sec) ----------------
Time     = 13650000.000000 Temp     = 288.920089 Press    = -248.414289 
PotEng   = -10.154491 KinEng   = 0.859534 Lx       = 24.923454 
Ly       = 24.923454 Lz       = 24.923454 Density  = 0.989318 
Volume   = 15481.914426 
---------------- Step  2740000 ----- CPU =    991.4070 (sec) ----------------
Time     = 13700000.000000 Temp     = 297.951746 Press    = 49.521989 
PotEng   = -10.107446 KinEng   = 0.886403 Lx       = 24.809669 
Ly       = 24.809669 Lz       = 24.809669 Density  = 1.002992 
Volume   = 15270.838566 
---------------- Step  2750000 ----- CPU =    997.0936 (sec) ----------------
Time     = 13750000.000000 Temp     = 283.094254 Press    = 44.885046 
PotEng   = -10.162728 KinEng   = 0.842202 Lx       = 24.878645 
Ly       = 24.878645 Lz       = 24.878645 Density  = 0.994673 
Volume   = 15398.561544 
---------------- Step  2760000 ----- CPU =   1002.7990 (sec) ----------------
Time     = 13800000.000000 Temp     = 275.671487 Press    = -1709.493929 
PotEng   = -10.142031 KinEng   = 0.820119 Lx       = 24.909205 
Ly       = 24.909205 Lz       = 24.909205 Density  = 0.991017 
Volume   = 15455.376730 
---------------- Step  2770000 ----- CPU =   1008.5031 (sec) ----------------
Time     = 13850000.000000 Temp     = 268.850953 Press    = 57.109317 
PotEng   = -10.194657 KinEng   = 0.799828 Lx       = 24.935932 
Ly       = 24.935932 Lz       = 24.935932 Density  = 0.987833 
Volume   = 15505.180818 
---------------- Step  2780000 ----- CPU =   1014.1702 (sec) ----------------
Time     = 13900000.000000 Temp     = 278.968377 Press    = -134.670806 
PotEng   = -10.088431 KinEng   = 0.829928 Lx       = 24.897332 
Ly       = 24.897332 Lz       = 24.897332 Density  = 0.992435 
Volume   = 15433.287152 
---------------- Step  2790000 ----- CPU =   1019.8886 (sec) ----------------
Time     = 13950000.000000 Temp     = 283.989410 Press    = -878.644915 
PotEng   = -10.200939 KinEng   = 0.844865 Lx       = 24.899754 
Ly       = 24.899754 Lz       = 24.899754 Density  = 0.992146 
Volume   = 15437.790779 
---------------- Step  2800000 ----- CPU =   1025.5761 (sec) ----------------
Time     = 14000000.000000 Temp     = 289.437260 Press    = -1490.515742 
PotEng   = -10.176201 KinEng   = 0.861072 Lx       = 24.912562 
Ly       = 24.912562 Lz       = 24.912562 Density  = 0.990616 
Volume   = 15461.625609 
---------------- Step  2810000 ----- CPU =   1031.2682 (sec) ----------------
Time     = 14050000.000000 Temp     = 300.750445 Press    = 120.629186 
PotEng   = -10.109457 KinEng   = 0.894729 Lx       = 24.814226 
Ly       = 24.814226 Lz       = 24.814226 Density  = 1.002440 
Volume   = 15279.255144 
---------------- Step  2820000 ----- CPU =   1036.9935 (sec) ----------------
Time     = 14100000.000000 Temp     = 281.560212 Press    = 474.744785 
PotEng   = -10.178151 KinEng   = 0.837638 Lx       = 24.837556 
Ly       = 24.837556 Lz       = 24.837556 Density  = 0.999618 
Volume   = 15322.391417 
---------------- Step  2830000 ----- CPU =   1042.6930 (sec) ----------------
Time     = 14150000.000000 Temp     = 279.932421 Press    = 209.447877 
PotEng   = -10.156206 KinEng   = 0.832796 Lx       = 24.844032 
Ly       = 24.844032 Lz       = 24.844032 Density  = 0.998836 
Volume   = 15334.380601 
---------------- Step  2840000 ----- CPU =   1048.3978 (sec) ----------------
Time     = 14200000.000000 Temp     = 278.961131 Press    = 121.286637 
PotEng   = -10.159163 KinEng   = 0.829906 Lx       = 24.763502 
Ly       = 24.763502 Lz       = 24.763502 Density  = 1.008612 
Volume   = 15185.747773 
---------------- Step  2850000 ----- CPU =   1054.1185 (sec) ----------------
Time     = 14250000.000000 Temp     = 296.597033 Press    = -347.128735 
PotEng   = -10.147876 KinEng   = 0.882373 Lx       = 24.812376 
Ly       = 24.812376 Lz       = 24.812376 Density  = 1.002664 
Volume   = 15275.838373 
---------------- Step  2860000 ----- CPU =   1059.8221 (sec) ----------------
Time     = 14300000.000000 Temp     = 282.454124 Press    = -452.740981 
PotEng   = -10.155373 KinEng   = 0.840298 Lx       = 24.814547 
Ly       = 24.814547 Lz       = 24.814547 Density  = 1.002401 
Volume   = 15279.849415 
---------------- Step  2870000 ----- CPU =   1065.5062 (sec) ----------------
Time     = 14350000.000000 Temp     = 281.082914 Press    = -205.544137 
PotEng   = -10.156557 KinEng   = 0.836218 Lx       = 24.898358 
Ly       = 24.898358 Lz       = 24.898358 Density  = 0.992312 
Volume   = 15435.195665 
---------------- Step  2880000 ----- CPU =   1071.2375 (sec) ----------------
Time     = 14400000.000000 Temp     = 283.397759 Press    = -520.812000 
PotEng   = -10.183038 KinEng   = 0.843105 Lx       = 24.837428 
Ly       = 24.837428 Lz       = 24.837428 Density  = 0.999633 
Volume   = 15322.155821 
---------------- Step  2890000 ----- CPU =   1076.9512 (sec) ----------------
Time     = 14450000.000000 Temp     = 287.552670 Press    = -111.294458 
PotEng   = -10.178102 KinEng   = 0.855466 Lx       = 24.832960 
Ly       = 24.832960 Lz       = 24.832960 Density  = 1.000173 
Volume   = 15313.888435 
---------------- Step  2900000 ----- CPU =   1082.6756 (sec) ----------------
Time     = 14500000.000000 Temp     = 281.523957 Press    = 262.724293 
PotEng   = -10.189658 KinEng   = 0.837530 Lx       = 24.834969 
Ly       = 24.834969 Lz       = 24.834969 Density  = 0.999930 
Volume   = 15317.604557 
---------------- Step  2910000 ----- CPU =   1088.4071 (sec) ----------------
Time     = 14550000.000000 Temp     = 278.929829 Press    = -448.345396 
PotEng   = -10.108212 KinEng   = 0.829813 Lx       = 24.852887 
Ly       = 24.852887 Lz       = 24.852887 Density  = 0.997769 
Volume   = 15350.783765 
---------------- Step  2920000 ----- CPU =   1094.1121 (sec) ----------------
Time     = 14600000.000000 Temp     = 291.669956 Press    = -1195.659945 
PotEng   = -10.109248 KinEng   = 0.867715 Lx       = 24.994354 
Ly       = 24.994354 Lz       = 24.994354 Density  = 0.980923 
Volume   = 15614.416821 
---------------- Step  2930000 ----- CPU =   1099.8519 (sec) ----------------
Time     = 14650000.000000 Temp     = 269.076574 Press    = -956.668524 
PotEng   = -10.156510 KinEng   = 0.800500 Lx       = 24.932719 
Ly       = 24.932719 Lz       = 24.932719 Density  = 0.988215 
Volume   = 15499.187111 
---------------- Step  2940000 ----- CPU =   1105.5726 (sec) ----------------
Time     = 14700000.000000 Temp     = 291.481133 Press    = -456.337543 
PotEng   = -10.137279 KinEng   = 0.867153 Lx       = 24.910245 
Ly       = 24.910245 Lz       = 24.910245 Density  = 0.990892 
Volume   = 15457.313761 
---------------- Step  2950000 ----- CPU =   1111.2628 (sec) ----------------
Time     = 14750000.000000 Temp     = 260.467477 Press    = -492.011166 
PotEng   = -10.141298 KinEng   = 0.774888 Lx       = 24.803170 
Ly       = 24.803170 Lz       = 24.803170 Density  = 1.003781 
Volume   = 15258.841485 
---------------- Step  2960000 ----- CPU =   1116.9531 (sec) ----------------
Time     = 14800000.000000 Temp     = 275.288484 Press    = -471.808563 
PotEng   = -10.158877 KinEng   = 0.818980 Lx       = 24.861324 
Ly       = 24.861324 Lz       = 24.861324 Density  = 0.996753 
Volume   = 15366.422108 
---------------- Step  2970000 ----- CPU =   1122.6415 (sec) ----------------
Time     = 14850000.000000 Temp     = 298.963392 Press    = -1017.345715 
PotEng   = -10.175688 KinEng   = 0.889413 Lx       = 24.870784 
Ly       = 24.870784 Lz       = 24.870784 Density  = 0.995617 
Volume   = 15383.969875 
---------------- Step  2980000 ----- CPU =   1128.3115 (sec) ----------------
Time     = 14900000.000000 Temp     = 286.410403 Press    = 181.137838 
PotEng   = -10.095454 KinEng   = 0.852068 Lx       = 24.837459 
Ly       = 24.837459 Lz       = 24.837459 Density  = 0.999629 
Volume   = 15322.212281 
---------------- Step  2990000 ----- CPU =   1134.0186 (sec) ----------------
Time     = 14950000.000000 Temp     = 273.757365 Press    = 46.116223 
PotEng   = -10.149220 KinEng   = 0.814425 Lx       = 24.867175 
Ly       = 24.867175 Lz       = 24.867175 Density  = 0.996050 
Volume   = 15377.273512 
---------------- Step  3000000 ----- CPU =   1139.7621 (sec) ----------------
Time     = 15000000.000000 Temp     = 259.543914 Press    = 1269.304949 
PotEng   = -10.207118 KinEng   = 0.772140 Lx       = 24.702033 
Ly       = 24.702033 Lz       = 24.702033 Density  = 1.016161 
Volume   = 15072.943703 
Loop time of 1139.76 on 6 procs for 2000000 steps with 512 atoms

Performance: 758.053 ns/day, 0.032 hours/ns, 1754.752 timesteps/s
97.1% CPU use with 6 MPI tasks x no OpenMP threads

MPI task timing breakdown:
Section |  min time  |  avg time  |  max time  |%varavg| %total
---------------------------------------------------------------
Pair    | 959.16     | 961.16     | 964.56     |   7.4 | 84.33
Neigh   | 28.08      | 28.125     | 28.163     |   0.6 |  2.47
Comm    | 122.26     | 125.76     | 127.65     |  20.4 | 11.03
Output  | 0.005198   | 0.0078024  | 0.020705   |   6.5 |  0.00
Modify  | 19.895     | 20.251     | 20.504     |   4.7 |  1.78
Other   |            | 4.454      |            |       |  0.39

Nlocal:    85.3333 ave 95 max 82 min
Histogram: 2 3 0 0 0 0 0 0 0 1
Nghost:    569.667 ave 580 max 554 min
Histogram: 1 0 0 0 0 2 1 0 1 1
Neighs:    0 ave 0 max 0 min
Histogram: 6 0 0 0 0 0 0 0 0 0
FullNghs:  2880 ave 3284 max 2735 min
Histogram: 2 3 0 0 0 0 0 0 0 1

Total # of neighbors = 17280
Ave neighs/atom = 33.75
Neighbor list builds = 126342
Dangerous builds = 0
System init for write_data ...
Total wall time: 0:28:29
