LAMMPS data file via write_data, version 4 Jan 2019, timestep = 3000000

216 atoms
1 atom types

4.3632860660411765e-01 1.8673671393393654e+01 xlo xhi
4.3632860660411765e-01 1.8673671393393654e+01 ylo yhi
4.3632860660411765e-01 1.8673671393393654e+01 zlo zhi

Masses

1 18.0153

Atoms # atomic

104 1 4.8875226686054934e-01 6.8587268899366842e+00 3.0851962861758975e+00 0 -4 1
64 1 1.6009245024381862e+01 7.4892056278001640e+00 5.5418232009203860e+00 -14 -11 10
196 1 5.2623111671098739e+00 4.2910844774322214e+00 6.9063428996301521e+00 4 -3 9
190 1 3.4838758201650393e+00 6.8364872477178089e+00 2.7041549332516635e+00 1 10 -4
90 1 7.2419603647518827e+00 8.3739500912503606e-01 3.4805716831258775e+00 -2 8 -5
38 1 1.7889038250954247e+01 3.1453968813594755e+00 4.7698791570116565e+00 10 14 -13
59 1 1.8542873010522499e+01 8.7862844907415756e+00 4.8027244085629430e+00 -2 -1 12
129 1 1.5426335236072539e+01 1.4508870994090433e+00 5.6225067666930979e+00 -2 -5 1
210 1 8.5986870012818546e+00 3.2133974360985693e+00 2.6837088596486662e+00 2 -17 3
173 1 2.2945552413552877e+00 4.3065055999684443e+00 8.8461624480884837e-01 12 -10 11
34 1 1.2165418848100272e+01 1.1750652103257406e+00 5.4432511913160413e+00 4 13 17
130 1 1.4535376434894184e+01 6.6676489642377019e+00 3.1233867559647694e+00 7 -4 5
102 1 1.6982859087861840e+01 4.9946499870909431e+00 2.7111407210196323e+00 9 -6 8
215 1 1.3176951394174623e+01 8.2853208662136204e+00 6.4111171892109056e+00 13 20 8
19 1 4.4550687789828878e+00 1.6960125127093073e+00 6.8003131521221967e+00 4 -15 3
148 1 7.5468197636658916e+00 7.0147904281663145e+00 7.1181523102204007e+00 -12 -5 2
1 1 8.8428822593851049e+00 8.1681677312439369e+00 2.3640220970695029e+00 -15 8 12
87 1 1.3336742599629016e+01 8.9600823404331909e+00 1.9145412184486843e+00 11 -1 2
146 1 9.9749768135309722e+00 2.1212076819412240e+00 6.7168410630708353e+00 0 -15 -5
147 1 1.6089259766260917e+00 9.2488159683623135e+00 1.5600672481966642e+00 13 5 -2
143 1 1.4546440655949052e+01 7.7815071791508856e+00 9.1567470443903822e+00 -8 11 12
42 1 1.1771546004888915e+01 9.4045194117691793e+00 4.2645658660555927e+00 3 2 14
156 1 1.3355619551404663e+01 3.5900027211456451e+00 6.4502068378072801e+00 -9 10 -8
179 1 8.1134506718754000e+00 4.2542802926142045e+00 7.1290889282112708e+00 -6 4 -21
46 1 1.1404165027857340e+01 6.9042065645039816e+00 2.5451251335840803e+00 -18 11 -3
151 1 2.2354992920802816e+00 2.2216573172434995e+00 8.4403565927826811e+00 11 0 -3
73 1 2.6998825500272243e+00 8.0098943920132175e+00 6.3172615428121244e+00 17 -4 3
205 1 1.8608638357127710e+01 4.3559162222972327e+00 9.0548175898646139e+00 7 16 -2
152 1 5.8597529523613021e+00 5.2539247158411433e+00 2.5777071252749542e+00 -6 3 4
166 1 4.7934410968636314e+00 6.8888119792304217e+00 7.8642497426321825e+00 -18 8 -3
117 1 7.1385214946226858e+00 8.7000601709817662e+00 4.7355979143793334e+00 7 2 -1
80 1 7.6738781729229633e+00 8.1792918447741059e+00 9.5170146014686559e+00 -9 0 -14
194 1 1.6289343979691850e+01 1.4544351257817127e+00 3.0932990277399042e+00 0 11 -2
33 1 7.7459151167530376e+00 6.0415750635654382e+00 9.5022841868078511e-01 -14 1 -1
189 1 2.9565380091710027e+00 5.4970241449100721e+00 5.3177743740209049e+00 4 -3 -4
214 1 5.5941203799744823e+00 4.8753487031925286e-01 9.2039476335550585e+00 5 -1 5
150 1 1.8538751463601724e+01 1.1947685758369269e+00 6.4525865220699696e+00 -2 7 -5
212 1 4.8511675575219879e+00 2.9096182284414303e+00 3.9727492712361023e+00 1 -2 2
195 1 1.0468151231779727e+01 7.4011147324467359e+00 8.7855660494937986e+00 4 -1 1
35 1 1.4317365229777989e+01 4.9033728410613051e+00 8.7237511400263319e+00 8 1 1
164 1 2.1496121291523016e+00 3.2734051930883088e+00 3.4798443265302157e+00 3 -1 -6
134 1 1.6657685040034337e+01 4.9141615937843737e+00 6.8684694021595964e+00 7 -15 0
51 1 1.0634289189696750e+01 9.5244157174427873e+00 5.0672878550659917e-01 -4 0 1
159 1 9.5956867580233407e+00 9.2471411182144223e+00 5.9732929238254142e+00 5 10 0
128 1 9.9918119614128234e+00 4.5457785144790748e+00 4.9489271848424137e+00 3 12 4
176 1 1.1051098366512086e+01 6.9019539481791750e+00 6.3268236364939181e+00 20 -6 6
131 1 1.2512071999242048e+01 4.8857077923943795e+00 3.8340614401695001e+00 -1 -11 -6
138 1 4.5189128253775470e+00 9.2129555048287948e+00 4.3888622086964730e+00 -3 23 10
63 1 1.0964513931719553e+01 5.3849833944849719e+00 4.4080171255147504e-01 14 0 -9
20 1 4.3874927410907123e+00 5.9670509655554627e-01 8.5845246863292690e-01 13 -8 0
160 1 1.3670796632065247e+01 2.5377243282642685e+00 2.5947522846733859e+00 -5 1 13
24 1 1.7235987766046716e+01 8.8180737248834795e+00 8.9807738507748720e+00 5 2 -6
56 1 1.5821382228328069e+01 3.3023812031445035e+00 8.2315483461211292e-01 24 4 1
55 1 6.1295817716227310e+00 3.9566059130499633e+00 9.5250351294355085e+00 10 5 8
94 1 1.3703379898662869e+01 4.7647120080829222e+00 1.8028638833318592e+01 3 -12 26
69 1 1.3697446142197560e+01 6.1555510117171996e+00 1.5699683665683818e+01 -15 9 2
9 1 6.1459435241285663e+00 8.5280821170683261e+00 1.1993696394567541e+01 -13 6 -12
201 1 9.9146355977653062e+00 4.8203447308280341e+00 1.5692793996850245e+01 7 -10 19
107 1 1.6509441814999914e+01 6.9754129588042622e+00 1.5983715785749231e+01 -6 -6 1
85 1 3.9532442574331097e+00 2.5164502348563831e+00 1.0494693794184103e+01 -7 -12 -12
108 1 4.0810757258337418e+00 6.2676553882874553e-01 1.5796559428026681e+01 1 21 -3
144 1 1.1518687102575498e+01 8.9029169791364104e+00 1.0943599125212822e+01 3 -18 -5
198 1 1.5048643566413393e+01 2.3088119559289337e+00 9.7057196542552759e+00 0 14 0
109 1 9.9561965984721834e-01 4.3406658317801323e+00 1.3649678540000966e+01 0 -4 3
81 1 3.6008147587436889e+00 6.9773154098325065e+00 1.4984878543801413e+01 -3 5 4
188 1 1.6660934907900348e+01 6.4746775465014768e+00 1.2909725363143107e+01 -3 11 4
43 1 1.2565969136081176e+01 3.7482976166562350e+00 1.4521488360556644e+01 5 5 7
125 1 1.5292914576087579e+01 7.1818318911996837e+00 1.8509649904712859e+01 -7 11 -8
141 1 4.7180233754447345e+00 5.0422570298797416e+00 1.7929081923607644e+01 2 2 -2
136 1 8.8281928216181669e+00 2.8648184464564350e+00 1.1954720613674906e+01 -16 9 0
29 1 3.9980092082059584e+00 5.3572935438381606e+00 1.0874311074473530e+01 1 -7 3
175 1 3.9032226785618480e+00 8.0618440123723154e+00 1.0328728831516214e+01 -3 -8 -1
184 1 1.2303026808620372e+01 2.4699977251895486e+00 1.6914632301061655e+01 1 13 0
83 1 1.3489555758694156e+01 8.2747538995721648e+00 1.3264931340463178e+01 -12 -9 -2
61 1 5.7974197090753057e+00 9.3743973801357665e+00 1.7060559616300210e+01 8 -1 -4
167 1 1.6419694184213796e+01 8.1572097005005706e-01 1.3613411907507230e+01 8 0 6
187 1 8.5096043393515899e+00 5.4913452637343028e+00 1.0169127833489270e+01 6 2 -10
76 1 1.6436263414215389e+01 1.6540668817825612e+00 1.6781429871189914e+01 6 4 16
25 1 9.2363406731661257e+00 8.6816528035749148e+00 1.2715880324626127e+01 -5 12 5
169 1 3.2751350264774515e+00 4.0831032890803236e+00 1.5525565730313186e+01 3 3 0
193 1 6.9375209920834209e+00 6.7248570312140208e+00 1.6663786466490890e+01 4 -13 -3
149 1 1.6789443601148129e+01 3.3925472818094411e+00 1.2749748556336009e+01 -17 6 12
216 1 6.1559694176898265e+00 1.3968865125191288e+00 1.2650049920409868e+01 5 1 1
27 1 1.3921321655893045e+01 3.3495944393779231e+00 1.2106783190975149e+01 -2 10 -2
209 1 1.5566854335545584e+01 3.8459786601362742e+00 1.5246750270105311e+01 -6 -1 5
40 1 9.1436796589649596e+00 5.7204363647335343e+00 1.3181925905946080e+01 -1 -9 8
32 1 6.4149584055930058e+00 6.7441181491246605e+00 1.4025081289758214e+01 2 3 -4
77 1 8.4368885059111765e-01 2.9838880687178051e+00 1.6944102474214425e+01 -13 12 0
118 1 1.1622984539404715e+01 6.1841749619490303e+00 1.1732744832578158e+01 0 3 8
192 1 1.2755746519857661e+01 8.1285806966899510e-01 1.0516998508701295e+01 -4 -1 1
23 1 5.2921235827768642e+00 4.0961681936560499e+00 1.3373301857979788e+01 8 -4 -6
3 1 1.7612621843486732e+01 1.5956710983810218e+00 1.0754066025226763e+01 -1 13 7
162 1 1.4355425325326204e+01 6.1220286251998104e+00 1.1522223274139499e+01 6 5 -13
97 1 8.5561889857368378e-01 6.1359878797280629e+00 1.6086145854816227e+01 13 9 -11
122 1 5.5335060226300170e+00 2.5219125590514038e+00 1.7518339350585027e+01 2 0 -12
178 1 1.1442442495976012e+01 8.4870908132602576e+00 1.5048090142426538e+01 -11 1 -3
13 1 1.1464135269654360e+01 1.7303663605974331e+00 1.2764331093224651e+01 -6 -2 -3
137 1 8.1350289086423277e+00 2.7815700626441058e+00 1.6135685000057506e+01 3 -13 -2
165 1 1.8458440565616684e+01 6.5573286160612572e+00 1.0529437370581899e+01 13 -4 -7
186 1 2.5168585320219230e+00 6.9516980181650885e+00 1.2522502154513102e+01 -4 2 4
60 1 1.3042479044201620e+00 9.3705804934358081e+00 1.0891974846106942e+01 -14 5 5
171 1 1.6322858341403929e+01 8.9248312409363884e+00 1.3918120863674234e+01 -8 -5 3
72 1 1.0324626866375826e+01 1.0055867133102896e+00 1.5444189254971185e+01 -9 -7 -7
203 1 2.7346083874661136e+00 2.1443116067357528e+00 1.3192905491595893e+01 -5 5 -4
155 1 1.9876260321569228e+00 6.5258944910858885e-01 1.8062701563267606e+01 -5 -9 -9
31 1 1.7062768679916442e+01 9.1473487039654966e+00 1.8409023717512483e+01 -1 8 -4
115 1 2.7040146732928285e+00 7.2190846689033759e+00 1.8097027957405839e+01 15 6 -12
15 1 7.9806859765153249e+00 5.2850568294007716e-01 1.0419723642013802e+01 -1 0 -11
11 1 9.9635627824688928e+00 7.1206037493257028e+00 1.6806302463349187e+01 -4 16 -6
18 1 1.3097584055244596e+01 9.0065096737908590e+00 1.7144821980877467e+01 16 0 -2
65 1 2.4323188071206774e+00 9.5240473382039887e+00 1.6205193967122028e+01 -13 4 1
21 1 9.9005821934047376e+00 2.6798870247844664e+00 1.8415181654278648e+01 -18 12 7
182 1 1.0560559578075027e+01 2.0350719777751438e+00 9.6216037212733401e+00 -7 5 -1
6 1 1.1236946874779187e+01 4.7377974581489202e+00 9.6850844034453836e+00 -14 3 -5
37 1 2.6925439797144155e+00 1.8265272401222244e+01 5.3990451301522331e+00 2 5 -3
88 1 1.7994827440067908e+01 1.5725996838901498e+01 5.3903589795873623e+00 -10 -22 4
84 1 5.6770998472260086e+00 1.5095091945550978e+01 6.1957097608565359e+00 8 -2 0
168 1 4.0366225852974065e+00 1.6405365859941483e+01 2.3562588633749768e+00 -1 4 13
132 1 1.3168512516638462e+01 1.3117324485278989e+01 1.5922480707378155e+00 5 -8 10
106 1 1.2324181153727654e+01 1.2635730273799853e+01 9.1344901291996301e+00 9 13 -2
92 1 1.4007554607135586e+00 1.5579839392872206e+01 1.0253608327724095e+00 -10 3 13
172 1 5.7105195815761869e+00 1.3842654954822260e+01 3.5067791461135172e+00 4 2 0
197 1 1.0778857959455101e+01 1.1441499056165394e+01 2.7545130263565976e+00 -3 -10 -3
58 1 1.1739517371618950e+01 1.4483642436816554e+01 6.9678941302670063e+00 -2 -16 3
154 1 1.1441721561040277e+00 1.1236352312881081e+01 3.1839984506027643e+00 -2 7 9
145 1 3.8269628627233647e+00 1.3951417017948300e+01 1.0257635719131861e+00 14 12 6
62 1 1.1816798865406630e+01 1.3697076041464186e+01 4.2544390044744427e+00 7 9 20
105 1 1.3771196764147007e+01 1.8228277007867373e+01 7.7292582067961870e+00 -9 -4 0
211 1 1.5740230859570779e+01 1.2740338427836891e+01 5.9709636805507316e+00 8 -8 15
78 1 2.0406497191292998e+00 1.6032492040942959e+01 7.0394800434974565e+00 5 0 2
157 1 4.3584966165785595e+00 9.7901945744615428e+00 1.3710648590634138e+00 6 -1 -1
91 1 1.4876600057626465e+01 1.0960779422292973e+01 3.1632062287740021e+00 -21 1 -6
96 1 3.2954539146299417e+00 1.3565227063126592e+01 5.9391803133398628e+00 -4 4 8
4 1 4.3523963837943000e+00 1.6051395622455146e+01 8.3671398663032317e+00 -2 -19 -7
133 1 7.2325043646895910e+00 1.2795328833747421e+01 6.9992183633800709e+00 -16 14 8
124 1 1.7081168008257141e+01 1.1466713063508990e+01 1.6248178571676350e+00 -9 11 6
103 1 7.6085540525844140e+00 1.0361046055571684e+01 7.8452464149210077e-01 3 14 -1
208 1 8.1632107431267169e+00 1.4761117441883874e+01 2.1408228426893450e+00 3 8 3
44 1 1.8476856015302523e+01 1.1553576106381275e+01 7.9408797983182433e+00 -4 -27 8
100 1 1.5750313211313223e+01 1.4997122443305912e+01 4.1150609925871535e+00 5 -3 -1
47 1 7.7814090997590348e+00 1.2148890849939729e+01 2.7415767447430279e+00 14 -8 7
82 1 9.4110352541562392e+00 1.2133089420734866e+01 5.2926022846547589e+00 -1 -11 -5
101 1 3.8215344330388654e+00 1.1924604225610009e+01 3.2780858099943302e+00 5 12 16
206 1 6.6985013040716295e+00 1.6993867719866195e+01 1.6449545961608705e+00 7 0 -11
57 1 8.7080401569007986e+00 1.8018498731503644e+01 7.6331824037217952e+00 -3 -4 -5
163 1 1.6089278641844619e+01 1.3985805271613771e+01 8.4636366673537093e+00 -2 -6 -6
52 1 1.7925021661435746e+01 1.7616006898041356e+01 2.0964344131125383e+00 -18 -7 -9
170 1 1.3359104739687277e+01 1.1584555354593897e+01 5.4863683349490389e+00 -8 -14 -1
10 1 1.6133487915404892e+01 1.0133120416062269e+01 6.5590072297297937e+00 12 2 9
202 1 1.0770404372332424e+01 1.6092989098390809e+01 3.2321603206704590e+00 1 -7 8
39 1 8.1763433004717996e+00 1.1070780665444225e+01 8.9785942979253690e+00 1 11 2
127 1 1.3810347863389266e+01 1.0452749661714915e+01 8.4268421125128476e+00 15 -4 -2
142 1 1.5064864645087667e+01 1.5480070637875146e+01 1.1831985405806269e+00 11 -7 -13
110 1 5.1726867797733644e-01 1.3119937314702181e+01 5.3610829836318077e+00 -3 -15 2
70 1 1.4370207625317798e+01 1.5357053361090374e+01 6.9408252851976018e+00 -6 18 -5
180 1 1.8221651135621958e+01 1.6626447188738105e+01 9.2104655321488096e+00 7 -4 -10
95 1 1.1023086425013448e+01 1.6919131504373699e+01 5.9136784346813425e+00 -10 -4 20
54 1 6.2319379487544690e+00 1.7915292289152550e+01 5.9746281577111207e+00 -16 9 -2
207 1 1.2472587383835556e+01 1.8382711122778527e+01 2.8476194531431909e+00 2 0 -4
8 1 1.6582891667547724e+01 1.7307689301949484e+01 7.0280673165168706e+00 3 4 0
111 1 4.4395672491658660e+00 1.1992753249077163e+01 8.1545143452536379e+00 -6 -1 -10
112 1 2.7535966178160103e+00 9.8343357382388472e+00 8.2330603393331394e+00 -9 -5 -6
200 1 1.0918094254189780e+01 1.0253807882390873e+01 8.4087318995229783e+00 -22 -4 -3
135 1 1.0467571573883282e+01 1.3772863754880984e+01 6.9686393914228439e-01 -4 1 -12
123 1 2.0996585086327801e+00 1.8644720157833081e+01 2.8558111537001110e+00 2 -3 -6
48 1 8.6120428707455652e+00 1.5933102349216988e+01 9.4354715551511088e+00 -5 -3 -8
89 1 1.0789658494663461e+01 1.1556859244136279e+01 1.4560792585532367e+01 21 -20 -7
7 1 1.4820491976412438e+01 1.3692449815912587e+01 1.2093583612368420e+01 17 3 -5
199 1 8.4182256922544489e+00 1.4255799262178973e+01 1.4629427356970542e+01 4 5 3
45 1 1.0906803808938239e+01 1.4412110360432052e+01 1.0309380724920533e+01 8 -11 -2
98 1 1.7454698269570223e+01 1.0525309519962649e+01 1.2025458126097682e+01 -3 6 7
74 1 1.8236934990192125e+01 1.7016759916896266e+01 1.3656758601221322e+01 4 7 3
158 1 1.1264123140088875e+01 1.4895927630341239e+01 1.4446193837912922e+01 -4 9 -13
68 1 1.2298193843701497e+01 1.5669563377680689e+01 1.8511377651648463e+01 8 -14 -27
93 1 9.3715696350741879e+00 1.2067113259654684e+01 1.6883139292105398e+01 7 -11 -7
86 1 1.0885947913565715e+01 1.7120236423570198e+01 1.0786846333030072e+01 5 -13 1
204 1 9.4303613174286749e-01 1.6769171920911411e+01 1.6556138083420560e+01 -11 -2 -3
153 1 1.5731197552538443e+01 1.1726871256011481e+01 1.0064842879303166e+01 -2 -4 -12
139 1 1.6478432236446142e+01 1.7015689210356211e+01 1.7786302196315305e+01 -6 0 -13
49 1 7.6960407684311587e+00 1.3969879855558446e+01 1.7580213323953622e+01 1 -5 -6
191 1 6.9331620740797790e+00 1.4808254267738747e+01 1.1504721191975403e+01 -11 -6 0
2 1 1.4066834861213623e+01 1.5766043922450882e+01 1.6117158374893961e+01 3 -11 -4
185 1 4.2948375638247285e+00 1.3724318075537346e+01 1.2186690857044445e+01 10 5 -7
114 1 4.4959176322277772e+00 1.0121847871604903e+01 1.4023246339142243e+01 3 -13 -11
22 1 3.0040322081737365e+00 1.1332406437900175e+01 1.2135413943883101e+01 7 -4 6
30 1 1.6300930271123807e+01 1.4739666583395534e+01 1.3970751244982543e+01 -1 -11 -16
66 1 1.3895339656778166e+01 1.1492383652054389e+01 1.7530151171123023e+01 1 6 9
53 1 7.5157527366874772e+00 1.0812621576268855e+01 1.2694958634260145e+01 0 6 3
161 1 1.7180027677448198e+01 1.3787175371504530e+01 1.8394661342311061e+01 7 -2 11
113 1 1.2927367387550930e+01 1.5725081917190932e+01 1.2113387813980976e+01 7 -4 8
16 1 8.5049961889503711e-01 1.3964691503258241e+01 1.5262726957967882e+01 -2 -2 1
36 1 2.4355042606479271e+00 1.2429700732671016e+01 1.6926988084595507e+01 -2 10 -10
71 1 7.7880847097408035e+00 1.6718467866998665e+01 1.7312871576176445e+01 1 -1 -1
120 1 1.1467007685641917e+01 1.8614484333594948e+01 1.8458135375014646e+01 -3 0 6
79 1 7.1758429596483291e+00 1.6382120056378135e+01 1.3733222993293849e+01 -1 2 15
14 1 6.5776543744610576e+00 1.1611140181851935e+01 1.5380629692223231e+01 -19 -4 9
75 1 3.4704940267768301e+00 1.3934724086532855e+01 9.6798641143671738e+00 1 10 4
99 1 5.1053774767416495e+00 1.3485713650672324e+01 1.6698728944817908e+01 2 -3 -8
17 1 5.2199247220634728e+00 1.6439412476562183e+01 1.5792928945857181e+01 -6 13 -2
213 1 1.3634886198237037e+01 1.1228950360182054e+01 1.3241979794344999e+01 7 -2 -7
140 1 3.2294168079768624e+00 1.5482917209248985e+01 1.4266376415840405e+01 -8 -9 -16
41 1 8.8029701466989385e-01 1.2794193343842062e+01 1.2864886738857470e+01 -9 9 2
181 1 1.4131273990386692e+01 1.8449442984754256e+01 1.5828972182649075e+01 12 -3 6
121 1 1.8642527768879109e+01 1.3727725074856446e+01 9.9199829668892363e+00 -11 -6 1
28 1 1.3404297800133273e+01 1.3203635838944722e+01 1.5301040834708209e+01 8 -14 -9
183 1 1.3865362502694685e+01 1.8177388639223619e+01 1.2990330388260551e+01 -5 1 3
67 1 5.2289486354014683e+00 1.7061780785113168e+01 1.1880455142836468e+01 4 0 5
177 1 2.6119373016445140e+00 1.7588033433048576e+01 1.2584806599683393e+01 9 -3 2
126 1 1.6589664983623418e+01 1.2695258536678844e+01 1.5591496305220195e+01 4 -11 14
119 1 8.8155355804866282e+00 1.2646747812835683e+01 1.1229030485870522e+01 17 -7 -11
12 1 1.8837070245881293e+00 1.8340724420053949e+01 1.0184915023161981e+01 -1 4 12
116 1 1.7933121917135832e+01 1.0373231425644155e+01 1.6221371148755470e+01 4 -2 4
174 1 1.1356723238435444e+01 1.1911590915841822e+01 1.1878901523740449e+01 -17 -3 -6
50 1 1.0611659785843214e+01 1.6537039936011556e+01 1.6409476731520606e+01 -1 4 -8
26 1 5.4511824305870551e+00 1.0843224096936005e+01 1.0568720812610255e+01 -8 8 -2
5 1 9.2687545714176647e+00 1.7785268476080955e+01 1.2961458983107566e+01 -3 -7 -10

Velocities

104 -5.4568868299028064e-03 -1.2571057530210352e-03 -4.8736479257234094e-03
64 -5.3629707439551656e-03 9.2267244198400572e-03 -1.0950406146780466e-03
196 4.1370812313948034e-03 1.0122666010353441e-03 -1.4387368998188882e-03
190 -1.0093173111412556e-03 -6.8153673240925776e-04 -5.9710780257750768e-03
90 3.2624052350582141e-03 4.4580123931930787e-03 1.4121146943048167e-03
38 2.1480588060043960e-03 1.7164587416153632e-03 2.3922665709352788e-03
59 4.8605248605106304e-03 4.9764459538894305e-03 -3.6365540670903816e-03
129 2.5920786427523607e-03 -2.6775652576985338e-03 -4.0175475843346837e-03
210 4.4398080538662590e-04 -7.4823451921882302e-03 -2.2704091413113126e-03
173 -2.9831106305100393e-03 2.5329073100149035e-03 -1.4271755945519777e-03
34 3.2926064224354334e-03 9.1569272970925609e-04 3.6414540949919949e-03
130 -1.5469978929295955e-03 3.4293885394025053e-04 5.1193679139056565e-03
102 3.1138417800840577e-03 -2.3282892654448778e-03 3.6197987172623637e-03
215 -7.7614963233466899e-05 -4.5923439382613753e-03 8.9475561742370635e-04
19 1.2534430370526710e-03 1.9961018233291034e-03 -6.9232463215868902e-04
148 -1.8902947197651471e-03 1.3219996947648007e-03 -1.4611002463366821e-03
1 -9.9355092997978887e-04 2.1032425567212407e-03 6.8162823809008735e-04
87 -3.9337656557215098e-04 -6.2341922114374020e-04 2.0234640829670304e-03
146 -4.8316080426596036e-04 -1.4469732072571898e-03 5.6895969607744443e-03
147 5.6412232160244144e-03 -2.9684053603679932e-03 -4.9685986927574168e-03
143 5.9053236768070484e-03 -1.1210072869716904e-03 4.9903832405532086e-03
42 7.1780107874796334e-04 -3.9755364766941585e-04 -5.8099201555966221e-03
156 -1.5638520046366432e-03 7.1590281899425244e-04 4.3223185221850950e-03
179 2.3193040972542397e-03 1.4938716767068170e-03 -1.8299263357407819e-03
46 -4.7116398169712971e-03 -3.2153106082537320e-03 -3.9447173553424017e-03
151 -1.6045635209198078e-03 -5.7902535424252700e-03 -5.0619170822724926e-03
73 1.9983757869712810e-04 -4.6089452023986522e-03 -2.5492883883761908e-03
205 7.5104847488474842e-04 3.8086165133467539e-03 3.5395782169734902e-03
152 -3.2501284946372237e-03 -2.0395372428268200e-03 -5.5257047403477217e-03
166 4.3059594006923614e-04 2.3843786794873001e-04 -1.5106751176709704e-03
117 -4.4967051919463867e-04 -1.3844691750082893e-03 4.9768458810306327e-03
80 -4.9370309608683617e-03 3.3259237096577099e-03 3.2687564842622937e-03
194 -2.0261918808443663e-03 -3.1903107921670629e-03 2.0620841257660001e-03
33 -1.5358626751025486e-03 -5.0799135086982961e-05 -4.5770322364076885e-03
189 3.1374942558685024e-03 -1.7498003396920613e-03 2.0031572477094543e-03
214 -1.4057902539439102e-03 -1.4114516753224169e-03 2.7880911809462878e-03
150 -2.8005328225343441e-03 -1.4651061917209617e-03 6.7482644634443733e-04
212 -1.0162188366240393e-03 3.0523988849917110e-03 -9.2767308285774206e-03
195 -8.1627858489462281e-03 -7.0861996941821506e-03 -2.6579699342885616e-04
35 4.4628361087591965e-03 -1.5627106120299297e-03 2.0269423362774723e-03
164 -2.4061779387388464e-03 -2.1264503026051126e-03 -1.3059235006816889e-03
134 6.4144178562022325e-04 -3.3322014817663711e-03 -1.1082823947031930e-03
51 5.5909938849371234e-03 -1.5873605646966045e-03 -2.0746077378970755e-03
159 -3.7887307488344395e-03 1.6479759855713247e-03 3.2504808989201770e-03
128 3.9925827602136799e-03 -5.8055122873996369e-06 1.1424920831557812e-03
176 -6.6209404207981104e-03 -5.0198034854846089e-03 2.9716312998164345e-03
131 4.3658563903486687e-03 -2.7951456687397838e-03 -4.2467844241055128e-03
138 1.1559863267037254e-04 1.2743098503058062e-02 -5.2608647597608806e-03
63 -7.4912332700951038e-04 2.3267849604388800e-03 -2.6458470067790133e-03
20 -6.0700602864707850e-03 -6.6228100463797167e-03 -5.8036914833223801e-03
160 2.4728500236658076e-03 3.3627729140702721e-03 3.5109076594191414e-03
24 5.2073667224292677e-05 -6.6438988380520978e-03 -3.1773062279501951e-03
56 -5.9524301734981844e-03 -3.5227031695709665e-04 3.3515800765256658e-03
55 -1.8943292586256952e-03 7.1201541532347383e-04 -4.2536222106762398e-03
94 -5.5248886113412419e-03 -1.2903744798297665e-04 -4.1228493777554333e-03
69 2.8637645810709331e-03 -6.3026802999869196e-03 2.1536237683200598e-03
9 -2.3051020394939431e-03 3.1861253188294331e-03 3.4666086819496000e-03
201 9.7719290985791383e-04 -6.4044268296508727e-03 6.4926660995126891e-03
107 -2.8178592275179461e-03 1.0192813004844844e-03 -5.0347135931045717e-04
85 2.4689226224401139e-03 -6.1660475230466997e-03 5.9671200819957143e-03
108 1.3144219135712281e-03 3.2613104327095729e-03 -1.7361168022406073e-03
144 1.1409048751910764e-03 -3.0080677324908209e-04 -5.0859241819738144e-04
198 1.5283408126805741e-04 -7.8944412931598318e-03 -2.8077139380235620e-04
109 3.5431325734970051e-03 2.1458705624156872e-03 -4.7130960445512186e-03
81 1.3796295318607954e-04 2.2523489717014163e-03 5.0139597623610390e-03
188 8.7223090428746348e-04 -1.0794160751496811e-03 1.7640484493211153e-03
43 -1.0967953164015255e-02 2.1815215706351655e-03 -1.0331100712757482e-03
125 1.4109140750398585e-03 3.8025608024436744e-03 4.0931267035235214e-03
141 4.2589273791552532e-03 -4.7270466941429033e-03 -2.7875596264659410e-03
136 5.5276454444101713e-03 -4.2516027410472662e-03 1.1037014342696512e-03
29 -7.1005339705931694e-04 -1.2599330076503025e-03 -5.1238444820432408e-04
175 2.0247242575749916e-03 -5.7370002174863199e-04 4.3635499194523454e-03
184 2.9281996999918989e-03 2.4554987794914917e-03 -1.5854640018032641e-03
83 -1.3705825650123420e-03 3.6453526635704583e-03 -4.0123322457470767e-03
61 -3.6534010781929110e-03 -3.8474822479700205e-03 -4.6993729133229878e-03
167 1.1086452497084175e-03 5.2833460849919019e-03 1.0213552288254395e-03
187 2.7087799528341138e-03 2.0419523659441514e-03 4.1995060488047263e-03
76 -7.4677545117454605e-04 1.9273642892237092e-03 5.4707943198301252e-03
25 5.3215819388211666e-04 3.2342897068738867e-03 -2.7110265640329116e-03
169 -4.7421805472673039e-03 -5.8168713170316496e-03 -2.8345404497693617e-04
193 3.0379917131228653e-03 1.4178992638547378e-03 -7.9657277263173697e-03
149 -8.8906498046413731e-03 -5.0322036159557255e-03 2.6931573428176860e-03
216 2.4996083185184993e-03 3.7785703291226651e-03 5.2552117461905992e-04
27 -1.3992139949555325e-03 -1.1047560402752761e-03 -5.7386590140634857e-03
209 3.6481144045546732e-03 -7.3093222531804179e-04 4.0880961265817722e-03
40 5.4292654266150887e-03 1.2864735027790525e-03 -2.1770949837834948e-03
32 2.1060473788777237e-03 -1.1375723725387337e-03 4.2009235546374623e-03
77 -7.8223237445074634e-03 3.9168269946180259e-03 8.4017471550302553e-03
118 4.9362321451253193e-03 7.8293723358902111e-04 1.6579462418343206e-03
192 -1.6026669096478037e-03 -8.4522960178263389e-04 -1.9040337618693301e-03
23 1.8733031832683981e-03 3.6524833839676561e-03 -6.6275836766452767e-04
3 9.1037433434807708e-03 -4.3485719793811542e-03 -3.5058143102005920e-04
162 3.0629653021997695e-03 -2.7309692141630976e-03 -5.3232137116819202e-03
97 4.5327203640193317e-03 -1.7205725461143621e-03 -1.6981564345262201e-03
122 -3.4673449380663241e-03 -7.2986361420909209e-04 -2.6336768701385138e-04
178 3.2529581837872417e-03 6.2606196301640028e-03 -5.3686244582889771e-04
13 -8.4627136652772588e-03 3.3394364340346705e-03 3.1361854554631195e-04
137 -2.6859565607804722e-03 5.2035676377776676e-03 1.2046515380339923e-03
165 4.6337478556484555e-04 5.8229156934908976e-04 4.4441635469432018e-03
186 7.9994986391356796e-04 -4.0615301013474858e-03 2.9539081049770616e-03
60 2.3856829795516313e-03 -3.1510476790494366e-03 -2.6497967543536584e-03
171 -3.0908671384172106e-03 -1.6088456095249316e-03 -5.1383377069223260e-03
72 1.0570058352352709e-03 5.3041430695637036e-03 9.7727019331479660e-04
203 -1.1484001311379624e-03 2.6278136496083045e-04 -3.3947004847947122e-03
155 1.4566164070172762e-03 9.4620407972070939e-04 4.1938554811831313e-03
31 4.0578143893368534e-03 -1.2769474616241535e-03 1.4461244126768196e-03
115 6.1030678796728842e-03 -4.3406465365546558e-05 -3.7891383208620813e-03
15 -2.0848941591213466e-03 -5.3437051892590466e-03 3.6773360923128850e-03
11 -7.4806129814494794e-05 2.4418038315599231e-03 -8.0442397004240988e-03
18 1.2924645124561033e-03 -1.4186799140163764e-03 4.0706396378381695e-03
65 -2.1573042707165660e-03 -2.1172379279714572e-03 7.6993182919352565e-03
21 4.7289671488175691e-03 -3.0039185071284559e-03 -1.0995269198149629e-03
182 -4.1921491731818630e-03 2.3056849652069258e-03 -2.6972580311053250e-03
6 3.0062058420730255e-03 5.2321109577003018e-03 3.0740125688569386e-03
37 -1.3718600992917874e-03 9.7304546093635578e-04 -8.3496263329693840e-04
88 -2.6454286737428241e-03 3.8609220505609852e-03 1.9139042609329924e-03
84 1.1151641127867032e-04 -2.9835821684577272e-03 -1.0932704759020605e-03
168 3.4163363011417316e-03 2.6525691564972171e-03 1.1632844014155474e-03
132 -2.2266078885523418e-03 2.4339975721660344e-03 -1.3769949119131453e-03
106 -6.8915499558680465e-03 -2.7574656660682307e-03 3.7576922491687772e-03
92 2.3946111342165836e-03 -6.3321276645909204e-03 3.0864327531281068e-03
172 1.7945178656925676e-03 1.1529914662392880e-03 4.1708208502200823e-03
197 -4.1398741546514297e-03 4.1526342977290711e-03 -9.1339637960280700e-04
58 2.8406080727054767e-03 -2.9676577567369967e-03 -9.3245377953290727e-04
154 2.1764326548567811e-03 4.6410002389520467e-03 1.4381602104532188e-03
145 1.6786479792762292e-04 3.2697045981480684e-03 2.8528372056919873e-03
62 -3.7761067746987049e-03 -4.6674411646461904e-03 5.0739052177739238e-04
105 2.4747466733331695e-03 9.6029230185664012e-03 -3.1388569472596268e-03
211 1.6268249823176587e-03 5.2911580377227728e-04 -4.8448288598193657e-03
78 1.6390037111276945e-03 -1.2471871001488047e-03 8.3586264460093246e-04
157 1.6849485365030027e-03 3.8201518277551179e-03 5.6696608539792788e-03
91 3.1519706092141047e-04 3.1077587462812017e-03 -8.9005961089553155e-04
96 7.7132134635155914e-04 -1.0300907303943251e-03 -1.4306503019225541e-03
4 3.6316890935207506e-03 -8.4579341765232234e-03 -3.7117460712126531e-03
133 -1.5209249571457775e-03 -6.9011592730238384e-03 -5.9442932785464127e-04
124 -2.6979726445012725e-03 -9.8299045114700603e-04 3.9624076063161755e-03
103 3.0400766119119166e-03 9.1254860176651770e-03 -7.8381401540309631e-04
208 -2.9968282479116638e-03 1.9516721772386693e-03 -3.1085879119675374e-03
44 7.3420645812614373e-04 -7.0783718525005215e-03 4.0276271270078068e-03
100 -3.6400144940967188e-03 2.3572932105116315e-03 -2.6747986562824714e-03
47 1.4880788833300613e-03 -3.8143008762839604e-03 1.2303344342168634e-03
82 9.3644999330070137e-03 8.4232451035676724e-04 -3.8730139549948413e-03
101 -8.0437834107988267e-04 -7.6285347576797696e-04 3.2301536289446714e-03
206 4.6577855597055469e-03 2.3995377122706365e-04 1.0701367860906938e-03
57 2.2186014617268856e-03 6.7770545589308255e-03 -5.2206644028154146e-03
163 5.0673113019459974e-04 -6.9398419856355918e-03 -3.4132593421028817e-03
52 2.6549457437456481e-03 -4.4613399752364141e-03 1.6570538641592037e-03
170 4.8106942003688855e-03 -3.0520375032214910e-03 1.3704104309960120e-03
10 -1.3204616389177893e-03 5.3802245630230460e-03 -2.3713225375962045e-03
202 -3.1694078591264626e-03 1.2571810819843484e-03 -8.7862685562821842e-04
39 6.3387413801248181e-03 2.6527617889692020e-03 -4.6564029407499788e-04
127 1.6801617769206384e-03 -3.7881493346586777e-03 -3.2655258238774355e-03
142 3.0094307417188534e-03 7.5143799869602224e-04 -5.2203258818871020e-03
110 2.0544240081632756e-03 -5.4152144553025732e-03 -1.0558070008820367e-02
70 1.3489303461870395e-03 -1.0914673792002940e-03 1.5221336347878492e-03
180 1.6163427648298292e-03 9.7521113188871753e-04 5.3477759053957002e-03
95 8.6873449847038012e-04 -2.9844122269798586e-03 -1.0960168227442180e-03
54 9.6573906637838665e-03 1.5235697794422605e-03 -2.1385058369003665e-03
207 -5.9505465616846789e-03 2.2414684658623459e-04 4.2366318526242614e-03