LAMMPS data file via write_data, version 4 Jan 2019, timestep = 500000

512 atoms
1 atom types

3.1374261325561648e-02 2.4803625738605838e+01 xlo xhi
3.1374261325561648e-02 2.4803625738605838e+01 ylo yhi
3.1374261325561648e-02 2.4803625738605838e+01 zlo zhi

Masses

1 18.0153

Atoms # atomic

144 1 1.1655688155856709e+00 1.2028238498203132e+01 7.2994668813620409e+00 2 27 -18
37 1 1.0850184763719271e+01 9.1381816472280555e+00 5.3279405098873553e+00 75 -21 -24
126 1 2.0337738155724963e+00 6.8795212241669574e+00 2.1978459686698235e-01 -118 -6 -25
161 1 1.0762561755359711e+01 7.4034159627199125e+00 3.1290897650265084e+00 69 -39 22
136 1 7.5583567734163015e+00 4.0393691779900092e+00 1.9463863349299488e+00 17 -76 100
104 1 9.6310784633236324e+00 1.0383957452220809e+01 2.0647085517602672e+00 106 16 -42
491 1 4.9036829888246336e+00 3.4683816374015866e+00 1.0574138225698199e+01 -10 -6 8
147 1 8.1952462081237396e+00 6.5079627482819982e+00 2.9192575647429617e+00 15 41 85
445 1 5.6697384337553078e+00 1.3649259436528478e+00 3.9435041682983325e+00 107 -11 -50
462 1 2.2760942424133392e+00 4.5988257446951613e+00 1.9523953291039911e+00 -57 50 -4
476 1 1.1034062499335431e+00 5.0923417676306171e-01 2.6811209165021532e-01 19 -71 -42
182 1 3.9225986141029283e+00 9.3404062279405764e-01 7.1282307742834616e+00 99 -11 65
70 1 1.2037772532260433e+01 7.8860500325990426e+00 8.6908043174232130e-01 26 -73 -2
156 1 2.9714678050317150e-01 1.2253891476492930e+01 1.2258963274653123e+01 57 -33 44
347 1 7.5568705041692859e+00 6.4191352167975175e+00 5.7584369714255050e+00 -57 -24 -23
356 1 1.1914983204624713e+01 8.6457995373153160e+00 1.1856693965612342e+01 15 7 41
277 1 1.2092619073319554e+01 9.6847396195180711e+00 9.2547753233012422e+00 65 67 146
210 1 9.7023911153042270e+00 4.7660371126753445e+00 5.9118959760317349e+00 -37 11 56
390 1 1.0435726472203456e+01 1.3056601058541699e+00 8.6194066767601409e+00 0 -24 13
381 1 6.6552952459902901e+00 7.8157881404597696e+00 9.4408128502635940e+00 21 -130 40
487 1 6.9959689076569322e+00 4.2643898706755783e+00 8.4659130051099041e+00 1 61 -8
83 1 3.6700709270835676e+00 1.2200072240150226e+00 9.6907647202401161e+00 37 90 48
393 1 7.1451554250378004e+00 3.7368814124844008e-01 9.2019022539758453e+00 41 26 -103
174 1 5.1992088527632729e+00 7.9308691331248946e+00 3.9116125670440969e+00 8 88 -62
503 1 2.1303804780950011e+00 1.5199659444006457e+00 2.8817351263152906e+00 5 -22 38
280 1 2.1551008317583320e+00 8.8953942001793589e+00 1.1967868963314949e+01 45 -54 135
448 1 9.6122188195557201e-01 5.7912737473676019e+00 4.0021274590834661e+00 41 -44 -44
167 1 8.7074495288593194e+00 5.7126432231865909e+00 1.0080638595567034e+01 135 -58 22
170 1 1.1624472876540302e+01 6.1902950481982950e+00 1.1513693757607008e+01 -16 38 11
346 1 9.0547699546701637e+00 2.2560658709549699e+00 6.1142104670934661e+00 61 55 -177
391 1 1.2218548416726190e+01 1.1954148475561302e+01 1.4261866269771719e+00 -78 -28 -47
439 1 1.1737156493887646e+01 2.1809668167448235e-01 4.2900651343008995e+00 32 -88 -135
26 1 8.6088829471250570e+00 1.1942698672242598e+01 7.8095584537296494e+00 -68 42 41
238 1 3.3455175836504591e+00 1.0186917870363322e+01 6.8637889656654067e+00 113 27 -37
326 1 1.7753691048772156e+00 4.7515249994417053e+00 9.6238827481990903e+00 13 118 38
2 1 7.6708251094651967e+00 8.6736455118098128e+00 6.6047456654739873e+00 12 -19 -98
234 1 9.5245118917597438e+00 9.6549060947848151e+00 8.7585546368635718e+00 110 10 5
431 1 2.0873902335865839e+00 2.0850938935636942e+00 5.6142266053002263e+00 -67 -40 6
340 1 8.6615493328464268e+00 2.1205568792143992e+00 3.4618840795537231e+00 88 24 32
85 1 4.7093171252781829e+00 3.7880855518807834e+00 2.6561799936476298e+00 14 97 -69
81 1 4.9537302015098890e+00 5.0598960079485922e+00 5.3105536756631224e+00 72 50 -33
266 1 1.7956089879367680e+00 4.5171460461457995e+00 6.1956158577319691e+00 20 -48 -85
418 1 5.9026981836453034e+00 1.0753946403637048e+01 4.8050399792866916e+00 -130 -79 -80
77 1 3.0221194167635406e+00 1.1646915823465310e+01 1.1990865294231122e+01 98 19 59
416 1 9.1484483462875428e+00 1.6832767109875153e+00 1.0666714099557664e+01 1 7 -25
59 1 8.6961374939024108e+00 1.1252271882878864e+01 4.8078078384168670e+00 24 -97 152
84 1 2.4857215463772029e+00 8.6795130685999844e+00 4.8328340063539734e+00 31 151 36
293 1 8.8202464049812672e+00 4.1756181109153054e+00 1.1986849794197052e+01 16 102 42
113 1 8.7903514222845285e+00 8.4423301469858956e+00 1.1479728978373378e+01 -14 7 112
247 1 3.4441018045242662e+00 8.2898339789708224e+00 9.2660398366276020e+00 -29 -25 38
23 1 5.4117603102168621e+00 7.1930025489945182e+00 1.1699508131618844e+01 76 28 92
129 1 6.4268396204433724e+00 8.1829611277377854e+00 1.3550578829507649e+00 -131 -53 -27
97 1 4.8171913653187532e+00 1.0675157834725509e+01 1.2188338211036343e+00 48 96 38
477 1 1.6868982486197952e+00 1.0353413993788507e+01 2.6102158369912436e+00 -65 -22 35
478 1 4.0488059966134893e+00 5.6370965796989765e+00 8.4160021618924539e+00 57 14 -2
455 1 1.1439141984256624e+01 2.9325090094153907e+00 2.7290117964490626e+00 63 104 41
237 1 9.3176960864554870e-01 2.0186861359638022e+00 1.0050724621540121e+01 3 5 -37
158 1 7.1205671514173119e+00 1.2295757906774520e+01 1.2216402601838231e+01 -32 32 -73
16 1 1.1816347979154166e+01 5.2269861309694310e+00 4.2385197865927591e+00 132 105 -14
453 1 6.6801034703945126e+00 1.7198928413082859e+00 6.9004638948820700e+00 114 -29 -37
9 1 2.4355357404435036e+00 5.8033369154161418e+00 1.2179798417649918e+01 -46 44 16
322 1 1.1070398663424623e+01 5.4968676986286598e+00 8.4720300592386106e+00 37 137 49
47 1 3.4151187855402793e-01 8.4099014772282157e+00 8.3778065902674967e+00 -82 103 -86
219 1 3.0079460014686993e-01 3.2741044482013404e+00 4.9000282161065783e-01 -77 -10 -6
285 1 4.1672913074466167e-01 1.5773476924895613e-01 5.9652266804938430e+00 -10 80 -69
39 1 9.8284937868042892e+00 1.1212961512682018e+01 1.2047782283585738e+01 13 77 10
352 1 1.1443013650823877e+01 2.7091413384832093e+00 1.5549703992701003e-01 -27 -65 -102
61 1 1.2362990301203919e+01 1.1373548146882682e+01 7.0154626605578638e+00 40 25 88
444 1 5.0979304199491233e+00 7.7937980158672815e-02 1.1733408628509606e+01 -22 -38 26
222 1 1.3456657959459217e+00 7.0751938854668230e+00 2.0604334456995943e+01 -20 8 30
114 1 1.8014806326346267e+00 6.1160782080034055e+00 1.6493415770370945e+01 -9 -8 43
171 1 9.5391734382164408e+00 6.4564374221913932e+00 1.9952780199544719e+01 -60 -9 8
260 1 2.1025046829120257e+00 8.6058179854462580e+00 1.7996050321160361e+01 -82 64 95
220 1 6.5547244748290634e+00 9.6596305931286235e+00 1.8859503927125587e+01 37 -8 -8
117 1 1.4006810342491467e+00 3.8247535692197737e-01 1.4224213526596861e+01 66 20 102
490 1 1.3894503626764720e-01 2.2228130273534128e+00 1.2582248238700737e+01 24 -157 -8
471 1 5.6162158024836986e+00 3.3357765340552969e+00 1.6505262011114027e+01 -85 -14 1
309 1 2.7220719263581965e+00 4.2460139434114419e+00 1.8509896201264965e+01 51 89 -80
331 1 5.7743965287426482e+00 9.9260801903407145e+00 1.2622624182647471e+01 62 4 -62
318 1 6.2926124281323326e-02 3.1885386148813479e+00 1.9266766016100938e+01 22 21 195
339 1 1.2377417909714691e+01 1.8583610397100223e+00 1.4481147853555441e+01 45 39 -16
442 1 1.0784628441705966e+01 1.0596283552844552e+01 1.4769578765369930e+01 74 0 -133
109 1 1.8920084482697013e+00 1.1790804292084630e+01 2.2798719452109985e+01 -99 30 -122
30 1 1.1506699831997487e+01 1.4336403237905404e+00 1.6989094432572699e+01 -91 92 27
151 1 5.3837508268462466e+00 3.4016162209470613e+00 2.3846024483208588e+01 -72 -82 -30
407 1 9.0425198195546486e+00 3.9351274636066935e+00 2.4104777202965529e+01 -14 18 70
76 1 3.2706034561129940e+00 7.8932503249278119e+00 1.4272947930720875e+01 78 79 -20
389 1 9.6107373312371180e+00 6.2457695475817865e-01 1.3339425585262649e+01 48 102 -50
335 1 8.8362761488634636e+00 1.8609272660635051e-01 1.8242811445143396e+01 -19 40 47
18 1 4.2071893946558152e+00 8.2855562403968595e+00 2.0056282740031882e+01 102 46 62
8 1 8.6264571620515387e+00 2.1171787770679291e+00 1.6139466853268168e+01 -58 31 -51
264 1 4.6250913837160708e+00 5.3424358214145009e+00 1.4919286411791115e+01 -38 30 -15
199 1 6.1619224750182227e+00 4.4341953710254813e+00 1.2615780316196798e+01 40 58 1
281 1 6.6588325738426173e+00 7.3811340225977906e+00 1.5859429259481461e+01 14 -56 132
314 1 2.6617685673044758e+00 2.3751055951423257e+00 1.6251064513515267e+01 18 23 -67
259 1 7.6570908751393771e+00 8.2774106021355713e+00 2.0920102227636434e+01 19 73 22
95 1 5.0406841890606744e+00 3.4170404990017329e+00 2.0878444855704508e+01 82 106 32
457 1 8.2420447779697472e+00 1.0718224608042936e+01 1.6844746817088499e+01 -4 -19 147
184 1 6.7915424557235973e+00 5.9426462116257710e+00 2.2510007399721808e+01 -39 -6 43
306 1 7.2219435070804794e+00 1.2324891214707785e+00 2.3744894501562648e+01 22 56 -122
187 1 1.9092843596810740e+00 5.5606463122146126e+00 2.2681236270960056e+01 25 62 -49
255 1 7.6865955041728364e+00 5.1709504339827337e+00 1.8075964838576432e+01 -155 27 125
178 1 5.6571994697084822e+00 4.3548137277957893e-01 2.0493445907002823e+01 86 105 -105
229 1 3.5459301489291071e+00 1.1075107654738286e+01 1.7347208223285108e+01 25 4 49
208 1 1.1803637753897135e+01 7.1231455206156449e+00 1.8222235045557397e+01 32 111 28
231 1 5.2330192287261461e+00 9.7671517742179343e+00 1.5601377572472948e+01 -7 -17 33
379 1 2.2846735735698095e-01 9.2615974273699742e+00 2.2350365344870255e+01 156 11 63
63 1 5.3815557263620404e+00 5.7351660986148447e+00 1.9421002905327455e+01 -10 -65 -109
500 1 9.2463225844605006e+00 4.8260989708842024e+00 1.5448350129199989e+01 107 -56 40
481 1 9.7301754607717417e+00 7.3421308550098061e+00 2.3788300872275471e+01 99 -42 4
373 1 1.0219046415874804e+01 1.0558586280343114e+01 1.8618072668559236e+01 78 6 -78
192 1 1.0930974711281740e+01 1.1198682362146423e+01 2.3565939866429936e+01 -80 75 -37
345 1 4.8196322176747248e+00 6.5410463408700714e+00 2.4776476930165025e+01 100 191 -25
244 1 2.4926041702188235e+00 1.4489833591291335e+00 2.1158416210034289e+01 -59 76 -7
139 1 1.0620708425624873e+01 9.5848193761497882e+00 2.1708362560664263e+01 6 19 -23
427 1 4.4222972458907357e+00 8.8969111763316455e+00 2.2734779624329079e+01 137 -7 3
215 1 7.2414107815986730e+00 2.2530304115820368e+00 1.9424585030843893e+01 -27 -165 -48
33 1 1.0625257669054125e+01 4.8929571754072274e+00 2.2093558597975459e+01 -101 -60 -35
383 1 1.1618586429711682e+01 7.7850802886136528e+00 1.5042669181759093e+01 -32 75 15
168 1 6.8290802463850682e+00 1.0082100559149215e+01 2.2544347694857592e+01 56 -143 -146
493 1 9.9547608902679308e+00 2.2019906204377695e+00 2.0406650953792770e+01 -78 134 39
122 1 8.9041042835031945e+00 7.5516913478366945e+00 1.4182457277909167e+01 2 -2 17
446 1 6.5876063660581829e+00 1.6742160321905222e+00 1.3626979722552695e+01 18 67 -60
143 1 2.6939519919419284e+00 3.0474916783047248e+00 2.3550255326348797e+01 -4 93 31
159 1 9.3336796498970447e+00 5.6926133482849528e-01 2.2596682951770099e+01 -43 76 129
93 1 1.6230526032006276e+00 5.0555108628312739e-01 1.8229996094081777e+01 -1 -50 92
14 1 1.1729188205773205e+01 4.7180113045138174e+00 1.6830252474538895e+01 108 -17 -34
86 1 2.5678154798039554e-01 1.2045762905170921e+01 1.8113922870541600e+01 -62 -103 108
249 1 1.1352297146911921e+01 4.3010807308650181e+00 1.3274698059125532e+01 -41 -64 -47
127 1 2.1904441675155772e-01 4.9342827561773248e+00 1.3059472481670705e+01 26 -1 15
512 1 2.6073371214086252e+00 9.7168608969304753e+00 2.4434250274385946e+01 53 -71 -2
146 1 8.2277263655830879e+00 9.6242833172013214e+00 2.4671201740412094e+01 -24 -22 39
261 1 9.1590870925956303e+00 1.8238858271668029e+01 5.3179241852177181e+00 23 59 -78
377 1 6.4946656087700143e+00 1.2659475895101036e+01 2.9326890308711290e-01 57 -42 -108
3 1 3.2316897828294384e+00 1.4218370020279432e+01 1.1028173579088087e+01 33 39 -30
125 1 5.4541265254922449e+00 2.0037925087703918e+01 3.6409956880495882e+00 3 -69 -9
130 1 1.1081130437307760e+01 2.2121181755622572e+01 3.1983926018950268e+00 -87 -19 87
278 1 5.1346924101816578e+00 2.2946714023271028e+01 1.0650861195297758e+00 -169 -99 65
287 1 5.6582921399109818e+00 1.3546669771684888e+01 1.0476441559972431e+01 5 -30 5
388 1 1.3392580333816246e+00 1.9718411974500484e+01 9.3213099851381465e+00 88 -9 -14
289 1 8.4360106451367489e+00 1.8149788327793686e+01 9.7932858485434888e+00 27 6 -18
372 1 8.1938159135680610e+00 1.3896824257062393e+01 2.2230556913384136e+00 24 -6 -1
315 1 5.3874557260884854e+00 1.7965582600006286e+01 8.4086831548244518e+00 -83 133 167
290 1 1.1473349072864444e+01 1.4971211805061419e+01 2.0848967642041965e+00 -69 -63 -120
302 1 1.1414795654477091e+01 2.3425018138089399e+01 1.2102892689899782e+01 89 -80 -10
506 1 8.1415713764319744e+00 1.5017332145507554e+01 9.3968218699325465e+00 34 -61 -51
325 1 9.8835238321916528e+00 2.0677769034900074e+01 1.3569074548634632e+00 -77 46 67
447 1 7.0204043920509163e-01 1.6917881026305245e+01 5.1394374257866291e+00 44 -26 -68
78 1 3.5238394768322845e+00 1.4183287608754499e+01 1.7981957749211344e+00 -2 -115 -25
466 1 8.4082480727936684e+00 1.5206111427078621e+01 4.7370354904385561e+00 136 -25 -37
297 1 1.3728842245857187e+00 2.3496775616654091e+01 8.2919388305969530e+00 -25 36 -6
438 1 1.0499905494560158e+01 1.3922668437971875e+01 1.1444996397918597e+01 91 14 -62
317 1 1.1198529370536772e+01 1.8325681755425144e+01 9.1677092315910560e+00 142 -19 -67
271 1 4.6783059344341655e+00 2.3091869700230781e+01 6.0830072060303504e+00 66 46 -100
197 1 1.1371053778540922e+01 1.4771234254869720e+01 5.5864474753874029e+00 39 36 67
193 1 1.1795543878855494e+01 1.8709619847587923e+01 6.5836762588819866e+00 -142 13 9
385 1 1.0997269422222056e+01 1.3887347615279994e+01 8.2394467369140205e+00 33 73 58
211 1 4.0122720665805574e+00 1.6856304731018383e+01 1.1573359582444851e+01 -51 31 -4
411 1 1.1575725003048992e+01 2.3331016150356369e+01 9.1323599212193596e+00 34 135 155
330 1 1.9739462797461360e+00 1.2751087232741533e+01 3.6177305853592245e+00 -12 50 -7
13 1 3.6711409768630445e+00 2.3794795789320581e+01 3.3832752140293905e+00 150 -74 96
36 1 1.0405872616087777e+01 1.7580545912863705e+01 2.7484472466844068e+00 18 107 143
55 1 1.0880021368729602e+00 1.7260860143959803e+01 2.1229431118783859e+00 49 78 -37
56 1 7.5187192171513706e+00 2.4065020235655034e+01 1.1501898445696033e+00 -52 105 80
362 1 5.1586702773109199e+00 1.7279294541212508e+01 4.3076198034649469e+00 -35 -65 -120
218 1 7.9779243122356434e+00 2.0712097614427279e+01 1.0018673801427699e+01 -97 26 -34
141 1 2.7565701980844564e+00 1.7697218769719839e+01 8.9788731526626933e+00 121 31 -30
367 1 5.6762517940073050e+00 1.2451893365194730e+01 7.9929582327299524e+00 -9 23 55
252 1 6.8931164254068484e+00 1.6443702917165361e+01 7.1404500624317881e+00 -37 -113 2
405 1 7.5491350709472309e+00 2.3117802897668184e+01 5.8492510441717647e+00 -22 -12 77
137 1 1.5650116078385401e+00 1.4671988281609547e+01 8.6184449506634540e+00 14 -10 -13
333 1 6.4173928754906466e+00 2.2154773273716096e+01 1.2149665732573139e+01 35 25 47
505 1 5.8499766860653795e+00 2.0694711747793065e+01 8.2999326799209321e+00 12 -24 -32
422 1 8.4860341046138412e+00 2.3145693305069102e+01 8.3948043709316433e+00 12 97 77
424 1 1.0494658569072457e+00 2.2803837991608539e+01 4.3143405409875548e+00 41 -4 -41
163 1 3.0816404093319796e+00 2.0896795962930106e+01 5.4324928105423691e+00 -5 -84 31
88 1 7.1189187255898254e+00 2.0311543943813085e+01 6.0156429515995367e+00 -23 49 59
284 1 3.7062582376151028e+00 1.7158986156766602e+01 2.0490045819982936e+00 -109 -73 -13
308 1 2.0885718882160527e+00 1.4655196381049430e+01 5.7481655670655512e+00 59 60 126
355 1 3.8312900705219937e+00 2.1228601041815629e+01 1.2286730180051480e+01 -18 3 45
243 1 6.6428674173684659e+00 1.6243803277852102e+01 1.2024836765240012e+01 -14 11 35
402 1 8.9203931245229011e+00 2.3751152601825311e+01 3.3094249405583214e+00 64 107 -31
414 1 6.4861231417416016e+00 2.0507047914155109e+01 1.0089193554970670e+00 14 5 59
29 1 3.1514635105139557e+00 2.2020390012966224e+01 9.5423480369191029e+00 135 -65 -16
169 1 5.8086274237563567e+00 1.3370750774512834e+01 3.5540723150359841e+00 -22 41 55
65 1 4.9228692369664921e+00 1.4731405811062473e+01 5.7850891612664483e+00 -109 58 30
275 1 3.1383044250163565e+00 1.8078450351863999e+01 5.9990009678622416e+00 79 -8 60
240 1 4.0236689271679484e+00 1.8721616193262811e+01 2.5202595216259011e-01 -200 176 57
38 1 1.0118989400894879e+01 2.0104740683353114e+01 1.2167563574232112e+01 3 -15 9
467 1 1.2262110370895293e+01 1.7126432313829362e+01 1.2162618410023548e+01 -16 111 94
423 1 1.3214392182345500e+00 1.8043139415072716e+01 1.4052371215690261e+01 -30 55 131
294 1 9.0659071440078449e+00 1.7823172232220720e+01 1.2866808479861056e+01 29 135 -93
304 1 2.3925673348477243e+00 1.6094563727689952e+01 1.7145142007078327e+01 15 -45 45
254 1 9.0199734698383693e+00 1.2905202700382304e+01 2.0104011118294032e+01 -17 102 12
468 1 9.0689142029934935e+00 2.1820764608912192e+01 1.8158238688519582e+01 112 17 1
387 1 1.1335388139093538e+01 2.4078692491920776e+01 1.9874005844771126e+01 32 -43 115
429 1 6.8462985796214211e+00 2.1370640370910124e+01 1.9383221042583777e+01 -53 -96 3
349 1 1.1069144543677425e+01 2.1016890719236478e+01 2.2592362113027960e+01 -51 14 72
464 1 7.7607197024630894e+00 1.9030992538000163e+01 2.2872618635392357e+01 37 26 16
475 1 5.8907329885957749e+00 2.3652589614669289e+01 1.5644564493309016e+01 -1 8 -51
508 1 1.0413220215336816e+01 1.4147815766450918e+01 2.2053566118300459e+01 26 55 -115
212 1 2.7625885415601009e-01 1.2860015510369143e+01 2.0742858060606792e+01 12 -23 -72
11 1 1.3706107656111719e+00 1.5508571812776626e+01 2.0874313597709964e+01 28 67 -61
263 1 6.8226562444532481e+00 1.3373151502587108e+01 1.6714230845933074e+01 -2 141 -52
79 1 1.7007018021630311e+00 1.3994885270536439e+01 1.6097274131496185e+01 -133 -36 116
449 1 9.7682473645961210e+00 2.0873750612893240e+01 1.5507593773230994e+01 -140 55 99
434 1 3.7538774382104969e+00 1.8719171638960098e+01 1.3668565322925389e+01 110 -25 -94
470 1 9.5953488171579016e-01 2.0731623147749197e+01 1.9401370707720758e+01 -12 3 -70
28 1 1.2994664938829674e+00 1.9237035998008437e+01 2.3312896842184337e+01 23 31 -3
274 1 2.8879323054776327e+00 1.8272479564523557e+01 2.0878988496013676e+01 -57 11 -13
357 1 9.3142627536320133e-01 1.7925904579858674e+01 1.8504164408500962e+01 -4 1 0
34 1 5.4181753165769013e+00 1.5136823763430719e+01 1.4666319181425660e+01 -86 9 134
421 1 8.9456547874650170e+00 2.2679162348921217e+01 2.4146259666468531e+01 -1 -23 41
194 1 9.6401116569879921e+00 1.8188509759325619e+01 1.7498927237794931e+01 45 179 54
406 1 4.0003510780450940e-01 2.1723987305968471e+01 2.1815948757523408e+01 61 124 -45
454 1 3.4510822256586673e+00 1.4618968428040006e+01 1.9288054477403023e+01 -129 42 6
507 1 3.6334369005536935e+00 2.0591412136243825e+01 1.9424999190040090e+01 -43 63 -39
107 1 5.5632379404659860e+00 2.3427211850869291e+01 1.8381690531178933e+01 26 17 -88
80 1 1.9195163057565006e+00 1.5015216630385837e+01 1.3458342940856646e+01 120 -22 36
40 1 1.9813938979040172e-01 1.6428016050665917e+01 2.4401635729008341e+01 -24 10 31
412 1 5.9135129576750920e+00 2.0583110725720466e+01 1.4738738766342019e+01 -71 -5 -32
150 1 1.1364398593625314e+01 2.0993072805724580e+01 1.9556657168966751e+01 57 -6 69
106 1 6.1741605153836794e+00 1.4681966694021041e+01 2.2510836066169880e+01 67 -20 -17
400 1 8.5884437779938221e+00 2.2406548311621897e+01 1.3469223449997854e+01 71 14 6
327 1 5.3670272781053550e+00 2.4080784869610092e+01 2.2977435477569763e+01 77 -23 10
291 1 1.1010928995664761e+01 1.3173748329286838e+01 1.7351269085117998e+01 43 141 67
183 1 9.7218021465229896e+00 1.8705661799530745e+01 2.0672603568608622e+01 33 138 23
430 1 7.0403504542220832e+00 1.8670095121398461e+01 1.8577843544874838e+01 106 14 4
312 1 5.2670459298350387e+00 1.6533719267788499e+01 2.0206833698433144e+01 -4 57 51
262 1 1.2177204944371910e+01 1.7654243062427668e+01 2.3738012800882117e+01 47 24 -42
235 1 1.1964774824043115e+01 1.9418158561471706e+01 1.7309446731443025e+01 -33 -119 136
20 1 8.7648109481873941e+00 1.5615533744275870e+01 1.6324363981627499e+01 100 8 -28
450 1 2.6305531224353884e+00 2.4146094516124613e+01 2.3039379274031546e+01 134 -67 40
316 1 1.1301717682970226e+01 1.5929430661029670e+01 1.8286052390747308e+01 107 57 99
204 1 3.7167657607552416e+00 1.4044678715446677e+01 2.3898780879618485e+01 75 -47 -172
482 1 5.0995758940660698e+00 1.7037057061248824e+01 1.6581645688596822e+01 15 54 37
71 1 7.9879964081340455e+00 1.8664941214738114e+01 1.5005815284076130e+01 99 -76 -131
175 1 7.5885123040888214e+00 1.5193019547944484e+01 1.8887362531243781e+01 20 28 -46
241 1 5.1748703458274736e+00 1.2568762147723621e+01 1.8944920375276297e+01 7 -130 -47
133 1 1.0522495802728933e+01 1.5549623549867828e+01 1.3922225216904261e+01 -70 111 -40
501 1 3.3673907782914574e+00 2.3798127971054605e+01 1.3835788126939867e+01 68 17 13
102 1 1.1985224156902586e+01 2.4543686349522929e+01 2.3639768656766527e+01 64 -40 38
258 1 6.9249821121086965e+00 2.1620158833642698e+01 2.2267646850155472e+01 131 -22 98
403 1 9.5156127099939738e+00 1.7344100328051304e+01 2.4554038527644082e+01 -56 21 10
115 1 4.1790308241470111e+00 1.9822278437974923e+01 1.6991307502568105e+01 43 -150 17
87 1 2.7613394782193152e+00 1.6397419033595547e+01 2.3191151671620709e+01 31 40 25
191 1 5.7143101474483915e+00 1.7431322066531663e+01 2.2958264564611760e+01 -8 -5 29
42 1 7.7995333475775164e-01 2.1268904033483558e+01 1.2612069868885362e+01 -37 125 -46
230 1 6.8357661180691318e+00 1.2720066445230362e+01 2.1366652732893378e+01 -18 -23 -143
273 1 2.8089194137808016e+00 2.3190968208441845e+01 1.6855569821188489e+01 5 142 89
384 1 1.1527142020649123e+01 1.6653530581902473e+01 2.1052504370324861e+01 -16 -42 34
105 1 9.4936717181948911e+00 1.4716475513389856e+01 2.4478845094787474e+01 -5 57 1
89 1 1.5166580445655597e+00 2.0207742957701768e+01 1.6229534889113417e+01 -16 36 -189
484 1 4.2278628698164029e+00 1.2549114861632718e+01 1.4672536434222035e+01 -9 38 81
286 1 2.6654332410750912e+00 2.1985714545796498e+01 2.4610042218340958e+01 9 -24 -51
176 1 1.9878635822702030e+01 5.4871105669459643e+00 2.3075085098540271e-01 -158 -80 -94
480 1 2.2735950574708852e+01 5.7910129625397584e+00 1.1099225998537497e+01 47 -40 60
267 1 2.0514740926335072e+01 3.2126325357208239e+00 3.1675593237908597e+00 -193 98 -45
54 1 2.1304954391880365e+01 8.9231379615615900e+00 6.7119833031053711e+00 33 56 85
221 1 1.4509656216757291e+01 5.3185137241613534e+00 1.1217790343362056e+01 -1 32 60
378 1 1.9286843096130475e+01 8.5026955478225688e+00 1.1120865023915764e+01 13 -24 -61
323 1 2.4086499800935378e+01 1.9764888978574195e+00 3.1744315403271912e+00 -28 -137 67
392 1 1.9515365578511172e+01 8.6494882477707673e+00 3.7914826829725916e+00 62 -5 -50
153 1 1.4331889384394620e+01 2.3473085137407228e+00 1.0074536924659558e+01 -29 -2 52
227 1 1.7054891743629810e+01 6.2839909518771240e+00 1.1960062808305999e+01 155 61 -43
246 1 2.3330792095490096e+01 2.6524320433720701e+00 5.8479675671813656e+00 12 30 162
198 1 1.4555165878629506e+01 6.0387488339040267e+00 2.2948140146331535e+00 -27 40 7
134 1 1.4979976462912003e+01 1.2395959853538086e+01 7.9575232767667838e+00 -131 -14 -10
440 1 1.8450300398097347e+01 1.1463302294796726e+01 3.9059635390508620e+00 -60 -69 73
502 1 2.2265289223466496e+01 8.5498184076562858e+00 1.1308848892740569e+01 -4 -51 2
131 1 1.7950661803702907e+01 7.3961010909477709e+00 8.6772774806875503e+00 -38 13 15
112 1 1.8047877245739521e+01 3.5765746193593184e+00 1.8928061769951514e+00 65 48 -55
19 1 2.4217237527468640e+01 6.1109842752235872e+00 8.6888763049279500e+00 24 16 71
307 1 1.3214455348815191e+01 2.4319964423262581e+00 5.9328886384075057e+00 -99 148 -5
239 1 1.5444687855725268e+01 5.9637245949458473e+00 8.7613137537438277e+00 82 -13 -13
217 1 1.2622162617189231e+01 1.2116808117286617e+01 1.1099210540791256e+01 67 -60 96
336 1 1.6097129871230266e+01 1.5561678052438108e+00 4.2038710569416455e+00 21 9 -25
31 1 1.9920594746440102e+01 1.1718918443063664e+01 1.2008152577097000e+00 -28 -53 93
319 1 2.3120106396071002e+01 5.3049668083100734e+00 6.3509194120596844e+00 21 -36 74
90 1 1.9347364294015918e+01 7.1117447009040957e-01 1.0726645576698228e+01 -65 -16 -102
5 1 1.5041642896007012e+01 8.9875087004093839e+00 7.7352474451184268e+00 128 71 15
1 1 2.2799127766556666e+01 1.0024215381711995e+01 9.0618052598594367e+00 -60 -73 74
186 1 1.4558320067557171e+01 1.0035785421459169e+01 1.1845087078611456e+01 -1 122 60
489 1 2.1168149570382056e+01 2.5685121002522595e+00 9.1593368977626142e+00 76 103 -48
228 1 1.4064498751567974e+01 8.0852315689371803e+00 4.2170898068278682e+00 -100 36 45
92 1 1.4427830850777797e+01 4.8128630913186743e-01 2.3638729584940901e+00 -76 21 -97
369 1 1.2584507419436664e+01 7.6395887516021670e+00 7.0226774672708707e+00 -44 97 38
279 1 2.4406294152011327e+01 8.8925445944888608e+00 5.6867914714270231e+00 -58 145 68
509 1 1.8538633834734881e+01 3.0721178843806598e+00 6.9643550874344813e+00 181 79 -95
368 1 2.0287173775860133e+01 5.1303218069170748e+00 9.7194594116785034e+00 76 -18 58
488 1 1.6863543048948856e+01 7.7384597006370113e+00 5.3544409762710519e+00 -55 16 -39
135 1 1.6361852944232133e+01 1.1587269115177527e+01 2.0193906681525409e+00 32 56 -110
413 1 1.7814762155435957e+01 7.0475206551967355e+00 2.0652489200518596e+00 -87 24 -21
225 1 1.5658233530628902e+01 1.1265115046079712e+00 6.8946320463886712e+00 81 96 42
465 1 1.7402054631881747e+01 9.6807391608573834e+00 8.2467483934345565e-01 76 93 -11
4 1 2.0751230657727739e+01 1.7997679575159145e+00 5.9818369749115439e+00 63 -61 23
474 1 2.4456681804860487e+01 8.6770515250098832e+00 1.0578501109409548e+00 -15 -28 -19
425 1 2.0362681094753114e+01 6.3436755424679747e+00 7.0061094351572324e+00 62 50 50
214 1 2.2563238204634033e+01 4.6862672055161578e+00 1.8028349147065719e+00 93 85 11
272 1 1.6326328731858688e+01 1.0135198460741654e+01 1.0232137988263927e+01 -9 -85 87
298 1 1.2527566953587911e+01 3.0305963557075386e+00 8.2962694198649736e+00 -21 49 33
140 1 2.3632345284786759e+01 1.1618441859779487e+00 8.6368015649202121e+00 -5 24 -7
495 1 2.2000666916150990e+01 9.3861230215208611e+00 2.6307414434158094e+00 -44 -21 -38
166 1 1.5160696027406534e+01 1.0903248025862284e+01 4.2547629072878372e+00 22 -17 -66
342 1 2.3126824983083459e+01 6.9746419850573584e+00 3.5357799981627065e+00 4 -41 0
479 1 1.4131105407207691e+01 5.4908078902943629e+00 6.3332877736219206e+00 4 -33 -50
354 1 1.8852605763653173e+01 4.8599998314186077e-01 3.2835072530801335e+00 38 61 21
180 1 2.0766207875382868e+01 7.9781867463464264e+00 3.9114199332695632e-01 -25 300 -32
100 1 1.8946576369484504e+01 9.7961864427067145e+00 8.0258524036559855e+00 47 -140 -34
441 1 1.8821690482862955e+01 4.9289171418250977e+00 5.0173452993975038e+00 -20 -44 2
251 1 1.7001401693956666e+01 1.0878655678176715e+01 6.4029997692316467e+00 -44 18 -65
380 1 2.4256973700930480e+01 1.2298898069420117e+01 9.5480778404281139e+00 -21 87 12
60 1 1.6096568366978168e+01 4.5914740919284682e+00 4.4003802348697487e+00 -28 -38 58
268 1 1.6678185457410002e+01 3.2045634276247039e+00 9.3892462674835482e+00 -152 22 0
499 1 2.2183282435850771e+01 2.6803233685266972e+00 1.1968882675444334e+01 77 2 -105
299 1 1.8387089803497858e+01 3.6883231670463110e+00 1.1740592108673372e+01 34 -9 80
179 1 2.1776679963923399e+01 1.1427549803662142e+01 4.3624317078255297e+00 -75 -87 -43
248 1 2.1187129988271877e+01 1.6194200894849640e+00 9.0579764052598288e-01 -39 35 12
52 1 2.4320214254311644e+01 1.1766033300834872e+01 5.2124631470598848e+00 79 -93 157
433 1 2.0231427368567644e+01 1.1373020828646233e+01 1.0009732776866944e+01 18 -128 -42
223 1 1.8177757903892903e+01 1.4396923626944620e+00 1.5338433396267703e-01 157 111 -8
451 1 1.4490190936790901e+01 1.2142519545674105e+01 1.3163946903537038e-01 119 49 0
12 1 2.3887504689723130e+01 6.1023353675483767e+00 1.8413707186195708e+01 35 -33 113
91 1 1.5949447949481460e+01 6.6880293370423010e+00 2.2711541860449152e+01 16 7 14
344 1 1.2944104114228422e+01 5.5545109555711205e+00 2.4086623505493002e+01 58 -35 94
27 1 1.7614633302856859e+01 3.0492952213982196e+00 1.4579049890896330e+01 11 -44 -9
6 1 1.5403379261957278e+01 1.0334220127530191e+01 1.6251914631050056e+01 114 21 -5
498 1 2.1257397929296936e+01 1.1107645804795888e+01 1.3436679722078903e+01 32 7 37
303 1 1.5762739534412855e+01 4.5527745459527509e+00 2.4627732553845796e+01 47 -82 192
296 1 1.8457390915921721e+01 5.8830044668733690e+00 2.1730549865150060e+01 -30 -78 101
371 1 1.4004814632385127e+01 4.7425838188835483e+00 1.5384606601380884e+01 -31 58 -66
292 1 2.0136274557374890e+01 6.1265682620009523e+00 1.3898590988207102e+01 -51 88 110
94 1 1.9814574356966268e+01 3.2883630900785872e+00 1.6719985193633484e+01 -73 35 114
224 1 2.0608158239840328e+01 8.8881257227156532e+00 1.8048705590411991e+01 135 -161 2
50 1 2.3172703364414822e+01 7.4576027464471304e+00 2.3419832865093845e+01 -29 22 -99
67 1 1.3667383166059771e+01 5.8874571740627486e+00 2.0319107662160746e+01 -82 -42 -2
288 1 1.8071022062331032e+01 9.4173856125888094e+00 1.7896281377341076e+01 -77 -87 -42
365 1 2.3315128438632641e+01 9.4500522543078738e+00 1.9984031017530924e+01 37 83 -33
32 1 2.3179376495219984e+01 8.6186276409124556e+00 1.4962058541186986e+01 -83 92 -110
473 1 1.7244601273647348e+01 1.0134116205676353e+01 2.2622885307981001e+01 -59 -35 26
157 1 1.3833309410984441e+01 9.4043599826448965e+00 1.8526977882805184e+01 -19 6 77
242 1 2.2975358597247741e+01 2.2063837394175336e+00 1.6691253911709644e+01 -12 -16 -60
276 1 1.3620871961767445e+01 2.6180688845033884e-01 1.8231483237022069e+01 27 210 -46
415 1 1.6378459264552198e+01 4.5906906693770200e+00 1.6505699776320817e+01 -82 -16 35
111 1 1.4435109514340747e+01 7.1066718452416184e+00 1.3620934613726302e+01 -71 -3 89
207 1 1.7957441015921063e+01 1.2381971613523296e+01 1.8348332272709243e+01 -4 -59 12
209 1 1.5190223013459313e+01 3.9766918050471411e-01 2.2503680787906383e+01 -20 9 -4
24 1 1.9907050462775132e+01 8.5172151506107543e+00 2.2639294883129971e+01 0 -60 86