LAMMPS data file via write_data, version 4 Jan 2019, timestep = 50000000

512 atoms
1 atom types

2.3176004685158347e-02 2.4811823995245689e+01 xlo xhi
2.3176004685158347e-02 2.4811823995245689e+01 ylo yhi
2.3176004685158347e-02 2.4811823995245689e+01 zlo zhi

Masses

1 18.0153

Atoms # atomic

133 1 9.0123367446652889e+00 5.2560206897613346e+00 1.0837313580574342e+01 -64 112 -46
423 1 3.8352644515316663e+00 3.9462186167185243e+00 5.9158607059189743e+00 -34 47 128
108 1 5.7201382601029120e+00 9.7065736395904505e+00 1.1735128120572627e+01 41 15 64
156 1 5.1611812638073706e-01 7.1048260283363200e+00 2.3767116950313834e+00 54 -32 45
372 1 9.3751457502650548e-01 1.1774668859176864e+00 2.9274241781219823e+00 26 -4 -2
48 1 1.0413408998448237e+01 5.5411133580551244e+00 3.1228146862905497e+00 -18 68 -11
500 1 8.4704824917316968e-01 2.0204975601831192e+00 1.0273797320788379e+01 103 -61 35
384 1 1.2240275100689779e+01 1.1656412105931322e+01 8.6678543515229833e+00 -13 -44 31
397 1 1.1411683073424708e+01 5.0235882192840755e+00 8.1798492561570946e+00 -5 63 -38
507 1 4.3468461840351544e+00 8.8724805650879244e+00 2.1825374257478165e+00 -41 59 -41
375 1 1.2352285154124482e+01 4.3002974448568221e+00 1.0959660167341985e+01 -15 91 -173
165 1 1.3503829291065210e+00 8.7167639179208969e+00 4.4349435465464273e+00 104 -5 113
282 1 4.2915494409671764e+00 8.8773290819265527e-01 6.6763813096900666e+00 111 -14 42
406 1 3.4696773738373539e+00 1.0683860850410499e+01 4.4641658322270139e+00 62 124 -41
132 1 6.7903648294851582e-01 1.1593590705247241e+01 1.0393646878853454e+01 -60 42 45
28 1 8.5283528519987435e+00 2.8446942115022287e+00 1.2035216913003573e+01 28 29 -1
19 1 7.1842828999124961e+00 8.4477536411867860e+00 6.0926634121511132e+00 23 13 76
35 1 6.0451724145897101e+00 4.6901941127853535e+00 4.6585218186585262e+00 -11 16 -72
364 1 1.1205213786036005e+01 1.1228036988795772e+01 5.0982442186068369e+00 164 29 50
31 1 2.2020447549363538e+00 1.1361641443362251e+01 7.6999927344319028e+00 -26 -48 93
392 1 7.9903982385056880e+00 4.1561557155582491e+00 8.4364262030006358e+00 55 -9 -47
509 1 5.0003294499849176e+00 6.1570908291559858e+00 2.0149473201969625e+00 184 72 -95
25 1 4.9229776182141638e+00 1.2114036386017686e+01 6.8737263802713100e+00 72 -42 -53
325 1 3.1728395281489385e+00 2.9959264541090720e+00 2.9558847503242012e+00 -78 45 63
356 1 5.7981688921312138e+00 6.2844933559534777e+00 8.4138149261680866e+00 25 6 39
54 1 9.1702134531330639e+00 1.6805304462197976e+00 1.7865270932415758e+00 32 52 81
272 1 9.4938334087159983e+00 9.8778320925803769e+00 7.1607287040954706e+00 -4 -82 87
157 1 1.1134978459671370e+01 7.6104111299340902e+00 7.8191203096264594e+00 -21 9 73
74 1 6.8579988095237034e+00 1.2083664778396539e+01 9.7063918174563835e+00 43 51 0
182 1 1.9106588079530713e+00 5.0956478273675430e+00 1.7229096927235648e+00 96 -12 64
290 1 4.6577312326203071e+00 7.5037501375610818e+00 5.2216312242154750e+00 -65 -66 -120
262 1 1.0287696106624169e+01 8.5865306061039046e+00 1.1980745525179580e+01 48 23 -41
298 1 6.9804197955006106e+00 1.1863000314453744e+01 4.8390756997601860e+00 -17 51 33
147 1 3.9380636823228482e-01 3.9493186356243033e+00 7.0439844260254585e+00 14 35 85
269 1 1.0536217267560700e+01 4.4158702976329751e+00 5.5758761193453665e+00 10 -48 39
1 1 3.5251814856065771e+00 1.7771595848502073e+00 9.0956755760077623e+00 -65 -76 74
485 1 5.4335968443127722e+00 3.5507958500404362e+00 1.1223714493478886e+01 -5 -42 49
211 1 3.7501670787590489e+00 4.8908850814059344e+00 9.2524781623604024e+00 -53 41 -1
410 1 9.9577037682560849e+00 1.0384449383234033e+01 9.8461201856629987e+00 62 124 13
94 1 5.9748776601641982e+00 9.3157844073243314e+00 8.8670544532103204e+00 -72 30 109
223 1 7.6747790878103954e+00 2.3486914405948043e+00 4.7901538104112431e+00 147 115 -6
75 1 6.8022867266779796e+00 4.4659307043298480e+00 6.1165911752699698e-01 -57 32 -8
431 1 5.8557177471490158e+00 2.1644140057168935e+00 1.2684763340263778e+00 -65 -37 5
286 1 8.5745987259926721e+00 1.4787645672351426e+00 7.8336298800400623e+00 7 -25 -45
234 1 7.7869943149486058e+00 1.1225613626582074e+01 7.7301827070916174e-01 116 8 7
68 1 1.0119812720584354e+01 1.7829054500144286e+00 5.2878057050376999e+00 -17 -26 5
91 1 6.7435578063829373e+00 9.6059709355469582e+00 3.2520089093864408e+00 14 7 16
434 1 9.7719213491780632e+00 8.2513012492169135e+00 4.0990956133255008e+00 105 -23 -90
44 1 3.2322593164836251e+00 8.4761284477285770e+00 1.1098210353663680e+01 -12 14 63
213 1 1.1997959017629836e+00 6.2120566695941877e+00 8.5604643261733298e+00 -23 -5 -18
168 1 7.9245524216086949e+00 5.7731141713088432e+00 6.1108802992353768e+00 55 -142 -147
180 1 2.3656419371315076e+00 1.2111841280176934e+01 2.0874232113402260e+00 -23 302 -26
69 1 3.0220215502662944e+00 8.8354266623410229e+00 7.7769309207063042e+00 -10 -32 -58
224 1 5.5487702973678008e+00 6.0881002121642480e-01 3.7066058138290101e+00 135 -158 5
200 1 8.7720648697540771e+00 7.0423088425568781e-01 1.0469953118774102e+01 104 61 -28
247 1 1.2281725836487855e+01 8.2230387990586014e+00 1.1015164346402234e-01 -33 -23 41
445 1 2.4167460778003051e+00 5.9051655106878691e+00 1.1667998093022602e+01 103 -10 -44
332 1 1.9909896393329483e+00 6.2389323945218731e+00 5.4903662148950927e+00 40 -56 -52
124 1 5.9099923974418545e-02 8.7707158567344550e+00 1.0520113246192624e+01 -62 150 -45
18 1 1.1162419109328363e+01 1.1462415162246820e+01 1.3975398148215907e+00 100 49 55
281 1 9.1320167280601332e+00 4.0825624552293167e+00 9.3525987672400690e-01 17 -58 127
338 1 9.7673037532411424e+00 9.2553143408816698e+00 1.5467014960529946e+00 13 54 51
486 1 1.1542228830684042e+01 6.6110615386410565e+00 1.1591788016848351e+01 -12 8 -29
131 1 1.2187892152095461e+01 5.3793415903815500e-01 7.2563105006244708e+00 -34 13 17
109 1 8.4588751164005576e+00 6.5391915251195272e+00 1.6362463531847666e+01 -97 32 -122
123 1 1.1254094496033673e+01 9.9844322292573189e+00 1.4083573308589767e+01 -142 -39 -23
425 1 1.0955432603597510e+01 3.9417526648458039e+00 1.7927130772007104e+01 52 58 49
402 1 4.4484099737258456e+00 2.6876757873954480e+00 1.4358168404023068e+01 68 108 -30
154 1 5.3286010930990138e+00 8.2000311970451190e+00 1.6682206243253273e+01 104 -15 -23
274 1 1.0127526041458616e+01 1.0972852941382884e+01 1.8749879080126298e+01 -56 12 -13
343 1 4.2263316849196499e+00 3.5407313216709846e+00 2.0869337157526147e+01 -48 11 123
376 1 5.7125855856297507e+00 1.0775898684302671e+01 2.0026152754847480e+01 -153 -111 -18
170 1 9.7557672478615434e+00 2.6655321002166796e+00 1.4074884327944934e+01 -18 37 0
322 1 1.8252198167702749e+00 6.5470743262865154e+00 1.5839493924651181e+01 32 135 50
380 1 4.5370531302778643e+00 1.1516642243219788e+01 1.6922764351043153e+01 -20 86 10
242 1 1.2258724198528656e+01 2.8414978093720471e+00 2.3189986761637069e+01 -10 -17 -67
80 1 8.4815253160038750e+00 1.1404835548903776e+01 1.4718101495072753e+01 117 -23 41
16 1 7.2443288988513199e+00 8.7536055474529331e+00 1.4924223845791900e+01 128 107 -21
482 1 2.1833955347759599e+00 3.3869789093317002e+00 1.2655727544338117e+01 11 47 41
126 1 3.6468859700649539e+00 8.3593723461658831e-01 2.4568964181044173e+01 -123 -8 -27
386 1 1.3990928680622992e+00 3.7648930682720434e+00 2.0864066626987103e+01 96 -12 10
347 1 9.7644043057743826e+00 4.2359612589798568e+00 2.3053875386994164e+01 -62 -21 -19
166 1 8.4353273727775751e+00 3.3841009282563306e+00 1.9474766878274689e+01 22 -16 -65
480 1 4.2475981628570745e+00 8.4708418731433746e+00 2.4081305787960762e+01 44 -38 64
320 1 1.1960640491466453e+01 1.0759536777932961e+00 1.9493990324510566e+01 50 16 -41
27 1 3.6883527986248343e+00 6.5540051142883868e+00 1.9981954784503511e+01 20 -52 0
177 1 1.1005767782760921e+01 6.3537633131041185e+00 1.9318247919006858e+01 -43 -87 57
439 1 1.0222056950931558e+01 8.9445188141643790e+00 1.6649400200760635e+01 28 -83 -133
329 1 8.2036438490860686e+00 9.5755686381263292e+00 1.9937629455176697e+01 -38 -140 -71
326 1 1.5363354543542465e+00 4.8182070311687113e+00 2.3860557094018063e+01 15 124 36
295 1 7.5703598810347161e-01 7.8289728557695693e+00 2.1757235738357007e+01 -61 59 -55
327 1 7.3784099541821577e+00 3.7907095730937010e+00 1.5376061527303641e+01 81 -22 8
136 1 4.4614855593869436e+00 5.6720428435329300e+00 1.5320416546846468e+01 19 -74 104
370 1 6.4327162812780614e-02 8.0592132068209832e+00 1.4373650424677935e+01 23 90 36
379 1 8.6859110730038722e+00 1.0175526827822543e+01 2.3122012330124353e+01 151 10 61
470 1 1.3509337509398507e+00 1.0208767245003346e+01 1.3727132512669579e+01 -11 -1 -68
323 1 8.3343312765456883e+00 7.1079917551574949e+00 1.9462769755235723e+01 -25 -131 66
484 1 5.9554844790338333e+00 5.4648256535649677e+00 1.8244376791202463e+01 -13 42 74
53 1 5.3706096335931814e+00 1.2793711587500169e+00 2.2757142044704896e+01 51 82 151
285 1 1.2339495773238504e+01 7.5648411030033076e+00 1.7585192344560646e+01 -7 77 -73
289 1 6.9393812792470593e+00 2.3542218115177627e+00 1.7328899751296309e+01 27 9 -19
306 1 3.3604788702605495e+00 6.7410758198547036e+00 2.2488680454490847e+01 19 50 -116
145 1 8.6144296387303743e-01 1.8371066204724125e+00 2.3723761449473660e+01 60 0 -112
314 1 1.1088309498858557e+01 1.1028759752700303e+01 2.1408894310645433e+01 29 28 -68
393 1 1.5841550485381337e+00 5.5075361531655833e+00 1.8683330948104281e+01 38 21 -100
275 1 3.4394820369064512e+00 9.3530594797621198e+00 1.9809625072719054e+01 77 -4 61
493 1 9.9957360998817659e+00 1.3067990470230577e+00 2.1256725666468707e+01 -78 137 36
10 1 5.8692347131190230e+00 4.7865081029104140e+00 2.3049117575811991e+01 -76 51 -29
317 1 5.4626732423959645e-01 4.4355592902667187e+00 1.4555692508395230e+01 143 -20 -62
67 1 2.4923895482135117e+00 1.1289650390145315e+01 2.1919497705750047e+01 -78 -43 -4
115 1 4.3936948339606685e+00 1.5105705288854614e+00 1.8412913851072236e+01 44 -146 18
409 1 4.2597570994507210e+00 9.6113679686039131e+00 1.4153468044163859e+01 -46 4 86
62 1 1.0958869584444049e+01 4.9165516609223214e+00 1.5378761341273519e+01 26 -68 -2
441 1 9.7592489576129164e+00 7.9186427738037208e+00 2.2893206694586926e+01 -19 -47 5
111 1 1.6844258431343806e+00 8.4568280002136276e-01 1.4998359563675008e+01 -65 -11 87
499 1 5.6685967005438336e+00 1.0309957064917308e+01 2.2648481791114385e+01 74 0 -105
60 1 1.9950701551858778e+00 1.0042908710232911e+01 2.4584335342951757e+01 -27 -40 58
464 1 8.1363390430139280e+00 5.4779783135566600e+00 2.1554832062070034e+01 39 23 19
359 1 7.3979516050337965e-02 8.2087849589491935e+00 2.4797721290824100e+01 -58 16 -22
462 1 5.2243272598329780e+00 6.2307967264226347e+00 1.2539705270258585e+01 -58 52 -6
3 1 2.4019205968586714e+00 9.6687892408628482e+00 1.6685337778894276e+01 32 43 -29
202 1 1.6306626176017234e+00 2.8325844966117169e+00 1.7026309834048028e+01 13 61 4
448 1 1.1555362334917907e+01 1.8773358799278156e-01 1.6910101276234705e+01 40 -49 -38
345 1 1.2066249406809918e+01 8.1217978685824139e+00 2.1683898061301417e+01 108 190 -23
101 1 8.2191924438590941e-02 1.0515046431646635e+01 2.0567984694136385e+01 -2 37 111
221 1 6.0924574312942470e+00 8.9729189734510972e-01 1.2567641698050469e+01 -5 33 59
231 1 7.5877193327587324e+00 7.5179655291480785e+00 1.2486702901561079e+01 -4 -17 34
222 1 2.1818376120455376e+00 1.6169012460281884e+01 8.1992521964037195e+00 -24 3 38
140 1 3.4087631578627287e+00 2.0719132831186602e+01 1.7969771848298508e+00 -5 20 -9
167 1 1.0690141129244696e+01 2.3605761467630721e+01 5.7692035504977102e-01 138 -52 32
212 1 2.0099256885926913e+00 2.3979607291638342e+01 6.2723367961854777e+00 13 -33 -68
105 1 5.9194318523403391e+00 1.7906296444960802e+01 7.1841789813269994e+00 0 49 6
46 1 8.0823899231060992e-01 1.3120169058967839e+01 3.7590090346285665e+00 34 -51 100
255 1 5.1718976949286386e+00 1.9091084994897106e+01 3.0750237747641314e+00 -162 27 129
172 1 8.6735310627181690e+00 2.2565112627959167e+01 4.5082257583686340e+00 45 -146 0
463 1 7.4996828688929735e+00 2.3087532935487918e+01 9.3016915536951501e+00 -67 9 -80
348 1 5.2794510358605766e+00 1.4759259662082217e+01 1.0090610222893602e+01 -30 -57 106
39 1 7.9498172507633305e+00 1.4093503113022667e+01 2.0553206987412063e+00 17 78 14
259 1 8.1043366809196615e-01 2.0671795057786458e+01 2.4051754577066034e-01 18 68 16
70 1 4.9605586192253730e+00 2.1842452864928603e+01 9.6376114807237663e+00 23 -72 2
218 1 2.7162230712789373e+00 1.5199517132147635e+01 1.1037009826227138e+01 -101 26 -36
411 1 1.1804574545820913e+01 1.9036789180287990e+01 2.3669852129366076e+00 35 133 154
206 1 4.5620418988379745e+00 2.3087974096719975e+01 6.0837807652782494e-01 -8 -146 35
85 1 7.2371119136379058e-01 2.2231408914128441e+01 1.2302594117178922e+01 16 100 -69
316 1 4.6870382658762759e+00 1.3990000649970526e+01 1.6258990964612570e+00 105 61 104
57 1 1.0041734423050052e+01 1.3301115979638960e+01 3.5694290636474357e+00 -52 -30 56
197 1 1.6433587934874967e+00 2.3292194994606181e+01 3.7167949063558985e+00 42 34 64
163 1 5.0416167131460705e+00 2.1962149064084521e+01 6.4508695903843352e+00 -11 -87 31
385 1 2.0553972830912612e+00 2.1233813976029580e+01 7.0865169528418894e+00 36 72 59
43 1 4.6261618046495370e+00 2.4438463884933377e+01 1.0396352296379728e+01 -59 -64 -8
374 1 7.1300297902819709e+00 1.6450764582107244e+01 5.3633878432051070e+00 44 36 -60
188 1 1.8593378193775116e+00 1.6381304251753630e+01 1.1335229517942129e+00 13 16 36
181 1 1.1061818218366093e+00 2.1222661328481340e+01 9.7257308370361226e+00 67 46 -69
192 1 7.7898521022778455e+00 1.9891259217495403e+01 3.2310992816427908e+00 -79 79 -43
137 1 8.6681034862499668e+00 1.6994683404372203e+01 1.3770427734604720e+00 16 -8 -13
432 1 7.0723245552962331e+00 2.0500054985209740e+01 6.2262138475837645e+00 30 -61 54
268 1 1.1730112045512460e+01 1.6398739963209813e+01 6.6392463856379429e+00 -156 24 0
404 1 5.1547192282902321e-01 1.2812960154258267e+01 6.6667170103682265e+00 -11 170 63
56 1 1.1181694438896429e+01 2.0314229979998260e+01 9.2708379442423592e+00 -54 108 81
175 1 7.1248305548391748e+00 1.6481722841435285e+01 1.0913104284155130e+01 15 27 -43
158 1 8.3405326255596730e+00 2.0647681010557040e+01 8.6180445362936329e+00 -33 37 -75
127 1 1.1020118025167175e+01 1.6684313851485186e+01 1.4590629391878700e+00 23 -4 21
22 1 1.0752991669498600e+01 2.4186660160432307e+01 3.4704893153285541e+00 3 -24 -4
362 1 4.9321432962494152e+00 1.5175300049071813e+01 7.5823131478053751e+00 -31 -67 -114
293 1 3.0194473714992882e+00 1.8508871952616545e+01 7.6468529770123173e+00 23 98 32
450 1 9.6616319470291128e+00 1.8163192044051232e+01 7.3037399745442135e+00 133 -59 41
107 1 1.0760401186482271e+01 2.3834250429293995e+01 1.1051450560914130e+01 27 23 -85
193 1 6.6195041899174907e+00 1.9031440035386215e+01 9.7551427531638577e+00 -141 19 5
246 1 1.0868242216824266e+01 2.0815982762011682e+01 4.6465686334402720e+00 11 28 164
280 1 4.6139469479902573e+00 2.2831014929778252e+01 3.7674602957253933e+00 45 -56 138
189 1 6.8494942577756461e+00 2.4066070021623052e+01 6.4091393833306221e+00 111 -130 -15
396 1 1.1392763009540442e+01 1.9143637398461049e+01 1.1755072521620750e+01 5 -16 3
119 1 8.7587203780984595e+00 1.4640973692633038e+01 6.0247676263045848e+00 41 85 142
400 1 3.5532601516332556e+00 1.9325730471683570e+01 9.9163722344276088e+00 71 16 3
251 1 2.5337984812278664e+00 1.5729197856452990e+01 4.1722960876278270e+00 -41 27 -63
328 1 3.2204294343509980e+00 1.8336031833003869e+01 4.8909569423614849e+00 40 20 23
81 1 2.1002972429379430e-01 1.5739502460450996e+01 5.6997680288382186e+00 72 47 -36
160 1 9.3037121260059230e+00 1.7765196015785413e+01 4.4277723884709381e+00 -6 102 1
467 1 1.7402765982333137e+00 2.0697659776728585e+01 4.4884503487091036e+00 -11 111 96
38 1 4.5099494660468693e+00 1.7491410191016314e+01 1.1436472003606888e+00 2 -12 9
416 1 9.4654364011604617e+00 1.5899082743544685e+01 9.2142920455287260e+00 -2 2 -24
159 1 8.9736308745782623e+00 1.3174665878381738e+01 8.5429589360119387e+00 -43 76 123
24 1 1.2121948190783550e+01 1.4558732280020573e+01 8.8787765303707715e+00 1 -62 77
240 1 5.2249088887919024e+00 1.4328712442323489e+01 4.1808876900507590e+00 -196 169 59
377 1 1.2125409993139959e+01 1.5695051379875949e+01 3.8555897461072646e+00 57 -34 -104
350 1 1.0737930619021407e+01 1.6036946740202335e+01 1.1743441920874830e+01 29 105 113
150 1 9.1959264389119308e+00 2.1276145812546677e+01 1.2045867698455949e+01 61 -4 72
8 1 7.4534496928169007e+00 2.2028548421019977e+01 6.6250493494741192e-01 -53 27 -59
227 1 1.2237258191207594e+01 2.3116026836262343e+01 8.6737067929987024e+00 157 58 -43
173 1 1.1141425150335492e+01 2.0762951218740881e+01 2.4452047238079583e-01 2 53 4
390 1 3.7576359034684663e+00 1.7627954104367578e+01 1.2385415126087478e+01 -4 -21 4
153 1 4.4171605864337913e+00 2.0642106154882718e+01 2.0049214049517442e+01 -32 -5 51
118 1 1.1418056773384581e+01 2.1017002298584220e+01 2.0563087098755009e+01 -65 162 -51
473 1 8.0232187552302499e+00 1.8794463165381671e+01 2.1884089952761823e+01 -53 -35 31
146 1 1.1943429588938497e+00 1.8735335156279344e+01 1.9676814867381687e+01 -27 -24 39
120 1 4.6626222185671402e+00 2.1505489873341588e+01 1.6269375089072245e+01 -42 -30 12
494 1 1.1678761883639874e+01 1.3741048541257522e+01 2.0703968263210854e+01 -36 153 -78
498 1 6.3490614631023350e+00 1.2993640851123791e+01 2.3978718947456652e+01 35 6 43
278 1 3.9718367633257947e+00 2.0890594312076079e+01 1.3810347797647427e+01 -169 -98 62
481 1 1.1214543738838696e+01 1.8860791855292277e+01 1.6569709036055343e+01 92 -36 6
512 1 6.0436720084512787e+00 2.3799719951705690e+01 2.1216720395118671e+01 54 -70 -6
84 1 3.4258100670899960e+00 1.8125838039752821e+01 2.1257827973792153e+01 32 147 31
191 1 9.0716602029598743e+00 2.1009020692757005e+01 2.3190533870528927e+01 -9 0 29
395 1 9.0909711686299222e+00 2.1876113678040372e+01 1.4774121480970784e+01 -102 -3 -60
95 1 4.8732025770655447e+00 1.7950619637004781e+01 1.7560967094119352e+01 82 108 36
447 1 9.8672463371601058e+00 1.3515035177876523e+01 1.7774437197792931e+01 41 -28 -71
51 1 1.0889984289692656e+01 2.1700004878411324e+01 1.6847271663251380e+01 126 93 -48
215 1 1.0897589595218719e+01 1.3071998554680706e+01 1.3607546415085253e+01 -32 -164 -48
100 1 2.0699267514771735e+00 2.3321404693121252e+01 1.6763734773119591e+01 47 -138 -38
139 1 2.2978895708602569e+00 2.4629782938830807e+01 2.1650899656306446e+01 -2 21 -21
346 1 7.0493812560197320e+00 1.2710246435157060e+01 1.2487281103352419e+01 59 55 -182
243 1 9.2819490716098656e+00 2.2181160832404764e+01 1.9544928525253166e+01 -15 19 37
241 1 4.4946116416883282e+00 2.1982632017877069e+01 2.2607662982073052e+01 -1 -131 -41
128 1 9.0309416613722391e+00 1.4446710356391129e+01 2.4091508048189393e+01 9 -34 -47
276 1 6.7925176147879256e+00 1.7085188283915151e+01 2.3950230735975254e+01 22 208 -42
225 1 5.2463112900575197e+00 1.5404456703649176e+01 2.2135638177729930e+01 77 89 42
351 1 1.4356655798969997e+00 1.4223269983392449e+01 2.4767041992824350e+01 -15 -28 7
291 1 1.0540319680346213e+01 1.8186366024598104e+01 1.9499455087527675e+01 41 138 64
186 1 7.2070188483924804e+00 2.0039170520833562e+01 1.5880659021989469e+01 0 121 56
6 1 8.5019923908814139e+00 1.4826143313918843e+01 1.3413628478976841e+01 108 29 -6
456 1 5.6920009625106402e+00 1.3637944044519108e+01 1.9857563015080654e+01 -43 27 32
161 1 8.6404454597710565e+00 2.4768985108910062e+01 1.5065260654953109e+01 72 -36 19
78 1 3.5436774076249433e+00 1.8729862908747389e+01 2.3948758104494267e+01 -2 -118 -29
405 1 1.2278223811401050e+01 1.5390974316568849e+01 1.7927428443471424e+01 -11 -12 72
292 1 3.1666120111095122e+00 1.3895471364079945e+01 1.6212112382522868e+01 -50 83 117
354 1 5.5312485075428981e+00 2.4745424742416226e+01 1.5346631111148415e+01 43 61 16
358 1 6.6616229160004679e+00 2.0864499840535128e+01 1.8576219773171044e+01 -21 46 26
420 1 7.1068363801406962e+00 1.7661104582390468e+01 1.9206405177564090e+01 42 -96 108
90 1 7.0080783146610033e+00 1.5336158396420773e+01 1.5516003942408323e+01 -68 -16 -105
162 1 1.2057236972252056e+01 1.7652839782375413e+01 2.1932045138937347e+01 -20 -26 -7
104 1 1.4895514607374469e+00 1.7069990090644893e+01 1.5185742489940466e+01 105 20 -46
86 1 7.0760267694361385e+00 1.2706567326867958e+01 1.6796679113125879e+01 -64 -106 109
21 1 2.5853150067979587e+00 1.4017523202996568e+01 2.2595461174656933e+01 26 55 -119
144 1 3.6841361667393753e+00 1.6152453871932433e+01 1.9415370283785645e+01 -5 28 -13
490 1 4.7661419954246789e+00 1.2544893395076025e+01 1.3435064720949105e+01 20 -157 -15
41 1 2.5995698577497888e+00 1.9091636152787746e+01 1.7366201489131441e+01 52 -106 25
388 1 1.0079261272399980e+00 2.0025626868526402e+01 1.4010649561933054e+01 89 -13 -11
442 1 7.9257831982291700e+00 1.4959194076680653e+01 1.9424959217791034e+01 77 -2 -129
424 1 8.2110742786994813e+00 1.7586535608510719e+01 1.6429486986858713e+01 44 -5 -47
267 1 3.1580396324868536e+00 2.3789530100111186e+01 1.3079898247238944e+01 -190 94 -38
228 1 5.8552620047638779e+00 2.0069792652064351e+01 2.3811978901069391e+01 -99 38 44
239 1 2.6090838979369796e-01 1.8752193218092167e+01 2.2880484389571787e+01 79 -16 -14
102 1 9.2735866503481699e+00 1.5678259616706393e+01 2.1650626979254607e+01 61 -40 45
387 1 8.6359020854075261e+00 2.3877042424599829e+01 2.1741847419003872e+01 39 -44 121
238 1 2.7225346745751433e+00 2.2930038137562459e+01 1.9352043593816031e+01 111 25 -41
271 1 6.0231211022082247e+00 2.3574980857088583e+01 1.8558365718225883e+01 69 45 -100
489 1 4.4243843529986986e+00 1.6289007970565500e+01 1.5179035210172307e+01 76 112 -42
7 1 1.0991231779655061e+01 1.2632198501694035e+01 2.3973705581564918e+01 78 68 67
237 1 6.5096746153879437e+00 1.8091117852063363e+01 1.3172337617438945e+01 1 10 -38
36 1 2.2146239134692999e-01 1.7413433985605742e+01 1.2576789845379093e+01 26 112 140
125 1 1.0836817904704308e+00 1.5224450270129966e+01 1.9512201572050071e+01 10 -67 -9
45 1 2.0763456212613591e+00 1.3216877730891177e+01 1.2676833289475494e+01 24 66 -80
142 1 5.9934507559481209e-01 1.3630994059146445e+01 1.5253479500369496e+01 50 -56 29
72 1 3.3171018272193209e-01 2.1835333021447333e+01 2.0857623243140747e+01 31 73 46
55 1 2.1735048238267907e+00 1.2721605330335944e+01 1.9238687768266313e+01 49 81 -37
435 1 8.8986315633773874e+00 2.4756416057594695e+01 1.8323038919850720e+01 -73 -59 -5
264 1 1.2198402497645422e+01 1.3240166027919097e+01 1.5581822080334462e+01 -39 23 -21
337 1 1.8716068665480634e-01 1.5813123966556756e+01 2.1995911705056361e+01 41 -10 -63
252 1 7.8006210838663019e+00 2.4644717514831520e+01 2.4459958718813041e+01 -36 -110 1
230 1 6.3902974331708124e+00 2.0751666148431291e+01 1.2556653323695908e+01 -16 -27 -148
491 1 1.8723726091079602e+01 1.0636498684337651e+01 5.6352262389978147e-01 -17 -4 3
403 1 2.2141465505736200e+01 1.1929881397928033e+00 4.1075766317896925e+00 -53 24 15
394 1 1.6891416079309980e+01 3.8917662760088167e+00 3.8338191440662270e+00 -79 -37 -55
77 1 1.5365844494037557e+01 1.0097365643831678e+01 2.9009972676256512e+00 96 16 52
401 1 1.3798698439649712e+01 7.5386163193686420e+00 6.8749544416450687e+00 25 -24 -34
5 1 2.3620089513090832e+01 1.1718125063092169e+01 2.2543676955477125e+00 126 73 22
110 1 2.1870769204411971e+01 1.7508969708386473e+00 7.6732427428253409e+00 14 -110 -33
452 1 2.0882833663895575e+01 8.6430030338232839e+00 4.7297553039271154e+00 12 12 114
368 1 1.3610773172634579e+01 4.3423650598743340e+00 4.9064918706145377e-01 74 -22 63
135 1 1.9955882389623973e+01 4.5435251227255913e-01 6.0348095648708844e+00 31 53 -107
265 1 1.7481259190334185e+01 8.6853556814203969e+00 1.7959694584058394e+00 -91 -86 65
4 1 1.5742533797219709e+01 1.2702100623417554e+00 1.0831254851136093e+01 60 -57 32
112 1 1.4193888058971966e+01 1.7405358223360106e+00 4.1123542708422276e+00 69 52 -48
113 1 2.4646090538670521e+01 1.1453968588573875e+00 6.0719145013928788e+00 -17 2 115
143 1 2.1430699741978202e+01 9.9743250634642848e+00 1.1803249185430817e+00 4 87 30
444 1 1.8797029502740511e+01 4.9700331145983183e+00 4.7791619113199459e+00 -22 -41 22
304 1 1.8985924579479889e+01 3.5482732389126781e+00 9.4645981495577090e+00 13 -52 52
422 1 1.5188696335432162e+01 5.0612176078463182e+00 8.2485230116984223e+00 11 101 74
183 1 1.8349245628328411e+01 1.2391990280675698e+00 7.8938426640440644e+00 37 139 28
357 1 1.3798930753085887e+01 2.3483515213957387e+00 8.8679718599203774e+00 -9 -1 6
318 1 1.3807601342627985e+01 1.1909655551292422e+01 1.0981280997543987e+01 17 18 197
203 1 2.1518758847917372e+01 4.1364039615999344e+00 3.9228375860400200e+00 121 -162 38
121 1 1.6486408941478462e+01 1.0942640746791854e+01 1.0078941351869158e+01 3 46 59
511 1 1.8465126928249539e+01 8.0052638582455522e+00 4.1469277165924945e+00 26 29 84
426 1 1.3423439937422685e+01 4.0259321414790694e+00 5.5596205982386451e+00 100 -51 34
315 1 2.1805021887880184e+01 1.0205174942392981e+01 1.0626882972100622e+01 -87 132 167
466 1 1.7378142520524523e+01 8.9735564903759286e+00 6.3863515859078213e+00 133 -22 -36
260 1 1.8105157897800044e+01 5.2416253960951380e+00 7.2503383922023845e+00 -77 56 90
92 1 1.9628408420427519e+01 1.1147422607109165e+01 1.2171806520426008e+01 -78 23 -101
83 1 1.6047199000709874e+01 7.7794242020372630e+00 1.0576194664498429e+01 34 88 44
342 1 2.1647922717811973e+01 6.9183717544571159e+00 6.9061778012726958e+00 4 -42 -5
277 1 2.0994345331117060e+01 3.0618241825432246e-01 1.1316081999019065e+00 62 67 148
341 1 2.3709645186119189e+01 1.6810216280015422e+00 1.0002297057963121e+00 19 -96 33
477 1 1.6563422339918173e+01 1.2003063054554742e+01 4.6992624364257995e+00 -68 -22 33
179 1 2.0740794842376083e+01 8.1079530404359019e+00 9.3526558999013165e+00 -81 -87 -46
461 1 1.8384654578009929e+01 1.1789890518910095e+01 6.9858536900897770e+00 -52 82 -7
178 1 1.6531234955714091e+01 2.7318189693101371e+00 6.6864985071215193e+00 92 108 -105
355 1 2.3787575059291555e+01 8.3143329372168466e+00 7.9349435616396935e+00 -19 8 38
134 1 1.5122340880244126e+01 5.2799549897307481e+00 1.1166690812596375e+01 -133 -11 -2
40 1 2.4714599917571515e+01 4.2848734076597310e+00 1.0125155171784872e+01 -22 17 32
399 1 1.5212427087897270e+01 1.0110228479348905e+01 7.6749583724566399e+00 -51 10 -27
216 1 2.3285133376987552e+01 4.0765871260519954e-01 1.1814572516150918e+01 -10 50 161
229 1 1.4896317487147440e+01 5.4358237661135691e+00 4.1653501848582115e+00 22 0 46
303 1 1.8016186980353918e+01 7.4819220569575569e+00 8.6107260042048814e+00 42 -78 184
194 1 1.2716734973267760e+01 6.5505081117099371e+00 2.4383416933953090e+00 47 173 44
32 1 2.2856604888565553e+01 6.7703030050337336e+00 3.1409814837509331e+00 -83 91 -116
11 1 2.2110534570540633e+01 1.0975252452516925e+01 4.3595339340752099e+00 23 66 -61
360 1 2.2298197219957711e+01 3.7914903337811459e+00 6.9900414562981605e-01 -83 -83 118
299 1 2.1227134949250168e+01 1.2151585266588739e+01 8.8576532512670134e+00 30 -10 88
26 1 2.1013374539707673e+01 7.7541930482814836e-01 1.0446255155896276e+01 -69 41 42
495 1 1.5710380036693021e+01 2.9556286910255420e+00 1.2482243693847215e+00 -43 -19 -37
476 1 1.5458024745826402e+01 1.0006837613119396e-01 9.4129277830285218e-01 27 -72 -38
334 1 2.2045544278840609e+01 4.1966431446323060e+00 7.0877503055801316e+00 21 93 54
501 1 1.6907944320919182e+01 3.4040278057985915e+00 1.1371335873333653e+01 63 19 15
117 1 1.8857305405868299e+01 4.6060668833155827e+00 3.9884582803999880e-01 61 19 101
440 1 2.0834884738122703e+01 6.9555926363670899e+00 1.2729966422531955e+00 -66 -68 70
413 1 1.2484641223485424e+01 1.7700543739982502e+00 1.9672465805231161e+00 -83 30 -21
389 1 2.4341914835393098e+01 6.6032998709475512e+00 1.2124071172088705e+01 44 99 -48
198 1 2.1811260734732368e+01 4.3150234231103131e+00 1.0152567314284346e+01 -21 37 7
66 1 1.3776880334352839e+01 1.0531176856762567e+01 6.5082484184752087e-01 -33 62 -62
210 1 2.1911974012762695e+01 6.6384338902422106e+00 1.1186763745177748e+01 -43 1 54
336 1 2.4297618422944662e+01 1.0104302473418606e+01 6.0129109866946138e+00 27 8 -24
505 1 1.3126922180705721e+01 8.5947052184991577e+00 9.9828023738317668e+00 6 -18 -34
164 1 1.2586334590609756e+01 8.7468683952816182e+00 4.3726283747433188e+00 15 98 64
33 1 1.3412877393381130e+01 2.6906639974970920e-01 1.2186409274144177e+01 -105 -54 -37
454 1 2.4437644542700404e+01 1.3771650400616053e-01 8.5248470499532001e+00 -124 42 14
504 1 1.3334503303524905e+01 1.8628759963024581e+00 1.5712389109970482e+01 -77 -3 26
89 1 2.0040009568537350e+01 7.7147490728344152e+00 1.3325723781617166e+01 -14 39 -188
250 1 1.7001674049184558e+01 1.2005593995649845e+01 1.6174282796941473e+01 -28 63 157
263 1 2.1254644384355323e+01 9.8582200657944927e+00 1.4192999588860111e+01 -5 140 -55
339 1 1.6523157537383401e+01 5.5415025820867259e+00 1.8955280614267121e+01 49 44 -24
451 1 1.6256864704015065e+01 1.0804329719256877e+01 2.3883017206428615e+01 118 42 1
235 1 1.4177401211350013e+01 6.6310807688827591e+00 1.3522689300782298e+01 -36 -117 133
367 1 1.4441366931379717e+01 2.6529164584318234e+00 2.1061441571792081e+01 -7 24 49
324 1 1.7612130470695632e+01 3.4790544931564460e+00 1.7556143032795767e+01 53 -54 78
308 1 1.9003328403851416e+01 7.1482543666053804e+00 2.1860218597905966e+01 57 65 124
349 1 1.3160081364372235e+01 1.1100012749693176e+01 1.7243246020356100e+01 -51 14 77
232 1 2.2188194494087600e+01 3.9371054251687569e+00 1.6259848811703318e+01 69 40 31
503 1 1.6722560241353449e+01 3.5556223400160505e+00 2.2980866911329340e+01 2 -21 40
103 1 1.5580168305035414e+01 9.5180253435519657e-01 1.8509388956061272e+01 -24 68 -77
417 1 2.2575054542489596e+01 5.3747093761609777e-01 1.6538445667435251e+01 25 30 36
465 1 1.4152182545068365e+01 5.8520971252149465e+00 2.0649655241294525e+01 75 88 -9
195 1 2.1098575580453705e+01 4.1753442943471022e+00 2.0965826348294708e+01 1 -49 83
50 1 1.6366292968788230e+01 1.1547155937169437e+01 1.3263030145431006e+01 -32 26 -106
497 1 1.7962256115898754e+01 6.2615941900815928e+00 1.6103187145843226e+01 14 44 30
14 1 2.1763617679061582e+01 8.3087524750185828e+00 2.3465762495184844e+01 108 -19 -30
149 1 1.5577402156737515e+01 9.9112291811053357e+00 1.6335176579367985e+01 -69 12 29
190 1 1.7513386220939530e+01 8.8028407638723518e+00 1.2725898040775231e+01 124 79 6