LAMMPS data file via write_data, version 4 Jan 2019, timestep = 3000000

512 atoms
1 atom types

2.5070050729293314e-01 2.4584299492704915e+01 xlo xhi
2.5070050729293314e-01 2.4584299492704915e+01 ylo yhi
2.5070050729293314e-01 2.4584299492704915e+01 zlo zhi

Masses

1 18.0153

Atoms # atomic

188 1 1.3133411087286124e+01 3.6648903657169729e+00 6.0413606535685958e+00 6 -4 71
172 1 5.3272730605684178e+00 4.3797095361477698e+00 2.3540238020858677e+00 -23 -101 36
181 1 2.2966084509334230e+00 9.9067918984180459e+00 1.7392365737264783e+00 78 66 -53
151 1 2.4195775356561672e+01 6.6456177939734085e+00 7.8796717135986971e-01 -35 -32 -8
341 1 2.2574765200529217e+01 9.6859473255644843e+00 1.0903263790107460e+00 37 -38 64
483 1 1.7761241424640744e+01 6.9539586256922945e+00 5.5262573061810913e+00 39 57 11
438 1 1.2484582543474270e+00 4.1736127105973235e+00 6.7954537689017513e+00 24 -14 -54
481 1 1.6644327719185831e+01 1.0687575964057368e+01 1.9749303637412250e+00 39 -13 -16
204 1 1.9253212760848371e+01 1.1406883804842424e+01 3.0578050884414454e+00 20 -23 -189
448 1 6.0850511940079395e+00 8.2078222589068108e+00 4.4608744346780167e+00 7 -39 -18
81 1 7.1489580704740696e+00 8.4451149834139483e-01 4.1310233177233213e+00 46 101 -19
159 1 1.3198993633136075e+01 1.1260300449342061e+01 9.7951800607486905e-01 -41 53 108
377 1 9.5212587814151259e+00 3.6646380225953328e+00 5.2908460326226461e+00 21 9 -107
215 1 1.4237382934427661e+01 5.1247783861622107e+00 8.1815318866068552e+00 2 -141 -43
461 1 2.0197058545791400e+01 8.0029243391760616e+00 4.8951929290430458e+00 8 26 -16
431 1 1.3239283818655693e+01 6.8965678986185113e+00 6.5285173591378987e-01 -62 -36 -34
201 1 2.1171445328719191e+01 5.2401745572939271e+00 5.4586309879769237e+00 -94 -46 41
231 1 7.8518973051087357e+00 8.4523111740379875e+00 6.8501805201476582e+00 -40 10 38
47 1 2.4478331593730061e+01 6.9417962213950881e+00 3.5688964620052435e+00 21 63 -104
383 1 1.4272076428815383e+01 7.5640701565335995e+00 6.4597112381603292e+00 -42 89 -25
304 1 1.9616388624179041e+01 1.2275999702906871e+01 5.6655953432434396e+00 -19 -46 122
4 1 2.0666156853750692e+01 7.5567971802402178e+00 2.0186828060288140e+00 17 -79 12
92 1 8.3558227731656078e+00 1.2189329594252948e+01 5.3176078628316148e+00 -48 55 -102
56 1 2.6854872910722718e+00 7.0870101699881332e+00 4.3707414360796069e+00 -10 78 30
502 1 1.9766445318102221e+00 1.0778299377157476e+01 4.9497771634253453e+00 -45 -27 -44
235 1 1.7958629980126815e+01 1.6782117448260716e+00 4.6700443489231427e+00 20 -59 145
451 1 9.3083201435444280e+00 5.2085351400054680e+00 1.9659672160733335e+00 70 45 -24
191 1 1.4128357969839861e+01 1.5464680980476970e+00 4.2120316311655701e+00 46 -19 -19
219 1 1.4849399125162485e+01 9.4457771417910799e+00 3.7287516198903865e+00 -23 -14 -97
396 1 8.0626127244877033e+00 5.6008892291841859e+00 6.7384643469800105e+00 -6 -2 19
236 1 2.1149757453737774e+01 1.1952916607005371e+01 1.1356564059159129e+00 43 84 63
273 1 2.3666933202496256e+01 3.1402529176773495e+00 7.4104705179919139e-01 79 179 125
303 1 1.2036003549559677e+01 7.6847656386515215e+00 5.0115460855611618e+00 23 0 202
8 1 4.6282699314823637e+00 6.9067113141268859e+00 2.3690906332330983e+00 -22 25 -26
332 1 2.3571865357404217e+01 2.5329216032420558e+00 3.5345146271746923e+00 13 -26 -98
505 1 9.9410606345422554e+00 9.9134156035918313e+00 2.7358139623278848e+00 -6 30 -47
422 1 2.1390257278358369e+01 8.7118042182753008e-01 4.1222654435174988e+00 -5 76 71
466 1 4.7361095551270322e+00 2.5314681596038056e+00 4.7746971484415486e+00 104 -31 -25
210 1 1.9275877443205459e+01 3.7699653523904519e+00 1.0628832094240146e+00 -7 -1 41
120 1 1.0668166919631492e+01 8.5070696664585501e+00 7.4123706192092884e+00 -6 -64 69
349 1 8.2989539113784314e+00 7.4974085303727334e+00 2.9811403804036054e+00 -6 26 49
135 1 1.2472673241973473e+01 9.0717765129262187e+00 2.2859397309017053e+00 6 51 -63
403 1 8.8734726912877253e+00 6.9179005127875426e-01 2.0270494204279590e+00 -68 51 11
272 1 1.9922193077823295e+01 3.0677379775474050e+00 3.7612914306771894e+00 -23 4 109
60 1 1.2117056669812612e+01 4.5212109057195695e+00 1.4254453663199540e+00 -75 -24 64
296 1 1.7974772805046950e+01 7.8655339970903171e+00 1.6890362622110238e+00 -47 -103 60
125 1 1.5898524339614898e+01 3.5978936672493886e+00 5.2085011622735573e+00 -49 -46 -11
366 1 1.6951708716053730e+01 5.0026857897799326e+00 7.3798918548229162e+00 156 -7 -47
15 1 2.3908605847114071e+01 1.0614682657714011e+01 3.3994311306228262e+00 10 -5 -134
436 1 5.5124565437939141e+00 4.9278111467392440e+00 7.4212280445768979e+00 46 69 29
239 1 7.1523028849103412e+00 1.0758127593840001e+01 3.5352063981447284e+00 45 -23 3
130 1 2.1395315020174937e+01 1.1930460247250132e+01 8.2420988808890137e+00 -15 -33 13
284 1 1.1354713080506267e+01 5.1420593206254397e+00 4.0296096662461540e+00 -85 -61 -11
413 1 2.0870093421661540e+01 9.2699940076830849e+00 7.1854446238459637e+00 -20 13 -23
411 1 1.5221561910969228e+01 1.1133970055267628e+01 5.9989996906147800e+00 25 113 160
185 1 9.9542954249484206e-01 1.3861098197573216e+00 7.2572823881981865e+00 -1 12 -17
91 1 9.1455047797970490e-01 5.3272063583080742e-01 4.5389647220706646e+00 -25 4 24
5 1 2.3629267203265854e+01 8.2591240023587762e+00 7.9279415726799298e+00 42 48 4
212 1 3.6957106558881363e+00 9.0303261017788952e+00 6.0139921417301476e+00 -7 -41 -36
197 1 5.3023462080017776e+00 1.8491619051438415e+00 7.5518710717224771e+00 8 39 53
455 1 1.7805602288091539e+01 1.0173743763222607e+01 7.1110594524126807e+00 46 99 18
19 1 1.1246757895647181e+00 7.2530454089127905e-01 5.0101000712276023e-01 8 49 76
62 1 1.1985674237484709e+01 1.0792775981466614e+00 5.9616946417499825e+00 77 -31 -52
55 1 1.6650109395902305e+01 7.8519843103089073e+00 8.2520560870821704e+00 25 66 -16
308 1 3.4017514873197210e+00 4.7971322437418324e+00 5.6277403142188547e+00 49 106 65
388 1 2.3692217165207193e+01 4.7803024655431265e+00 5.0283176908410576e+00 65 -13 41
372 1 7.8936448831095340e+00 3.3578516033039825e+00 2.8778100642274462e+00 14 -7 21
103 1 7.9703930610695659e+00 4.1640391180449071e-01 6.6939346117075518e+00 -29 41 -49
221 1 2.2936114531906707e+01 8.7071629920727265e+00 5.0489446705830403e+00 10 7 42
150 1 1.4702947487035409e+01 4.2516542927090164e+00 2.6618128778451404e+00 79 -32 69
20 1 2.1594861708783704e+01 5.2612138095169518e+00 6.3827626763214118e-01 122 31 30
484 1 1.6937929072663355e+01 5.2426961493530779e+00 8.7095181491073059e-01 -49 -18 91
350 1 1.5859150277412665e+01 6.8788237851140099e+00 3.2167852211176009e+00 30 -2 38
154 1 9.9938103316618587e+00 2.1685255912187373e+00 7.4131715501959601e+00 95 -34 4
375 1 1.9714624584575805e+01 1.4529765828788301e+00 7.8235383143302144e+00 12 51 -117
186 1 3.1569589647592253e+00 8.1722309254914527e-01 3.3453454834827245e+00 -23 169 45
253 1 2.7325485548975226e+00 2.9045815965981601e+00 1.5584953454891242e+00 -2 13 -2
444 1 1.5610323352357071e+01 1.1016745428080650e+00 6.6408380387061783e+00 -2 -31 17
144 1 9.0620044256169550e+00 1.0726809621828897e+01 3.1747335722260434e-01 -22 31 47
80 1 2.1257980591182044e+01 3.9087829452199618e+00 8.0804853223448170e+00 28 52 8
245 1 5.6815925615886700e+00 1.1693058972667551e+01 8.1622225228296728e+00 -22 9 88
464 1 1.3278626937499836e+00 6.4180052558004945e+00 8.2216715637353559e+00 17 18 -25
107 1 1.3244907474722380e+01 9.2948953472300335e+00 8.2705200122916107e+00 -34 60 -136
414 1 7.7983755792040776e+00 6.1288425307510481e+00 1.6014361209924992e+01 101 16 62
121 1 5.7129483232903695e+00 1.4335369824356852e+00 1.0260740658627784e+01 -10 4 4
207 1 9.5872493129102452e+00 1.1633351746603797e+00 1.2578921442672023e+01 37 -31 2
226 1 2.0021825191843792e+01 2.7515144466825818e+00 1.1740073686565932e+01 1 1 6
369 1 1.1026765774485856e+01 8.0410847738214597e-01 1.5943215328982218e+01 5 54 4
46 1 1.2812292827357348e+01 1.2401887456388307e+01 1.5534734607205561e+01 41 -18 64
180 1 8.6155741998108155e+00 4.9954771098802722e+00 1.0672520787503000e+01 -3 290 -24
205 1 1.1842830462816460e+01 2.5566607771761776e+00 1.3753407858873143e+01 -37 -7 -56
79 1 5.6720437628586939e-01 1.1905290056638284e+01 1.1545362804924412e+01 1 -102 105
119 1 1.7237068049579729e+01 2.0151826185290282e+00 1.1972364303722090e+01 42 68 95
320 1 2.0711062028351016e+01 5.0627541545121355e+00 1.3001557909205943e+01 21 86 31
456 1 1.4990636287173546e+01 1.0330351745605718e+01 1.5080713343587719e+01 -31 -26 13
10 1 1.4536900668719106e+01 7.7608676920537452e+00 1.3854124883228653e+01 -83 56 -24
36 1 2.3463882010420324e+01 2.6968323736221507e+00 9.2042886839799571e+00 110 64 121
183 1 2.2188470250085867e+01 9.0094776835740458e+00 1.1604933882989943e+01 33 90 20
138 1 1.8042956643166931e+01 6.4168426658017506e+00 1.0950322593135070e+01 186 44 19
178 1 2.3539951242728350e+01 1.0259235752303056e+01 9.6844728637120259e+00 73 33 -62
141 1 1.6062038914447261e+00 8.3913738746601698e+00 1.2940267437231821e+01 100 77 -10
89 1 5.4532312268038896e-01 1.1548424199352212e+01 1.6140240913074908e+01 -3 17 -175
309 1 1.2450965563584020e+01 8.7627219351590941e+00 1.2115686477904847e+01 58 60 -44
132 1 2.6130591723070116e+00 1.5443059466396218e+00 1.0879722807258471e+01 -42 -7 -71
45 1 1.4289122388972695e+01 5.3914906542391341e+00 1.2126616677240722e+01 -5 88 -79
129 1 4.5593248870181773e+00 4.8221147995029323e+00 1.1715669983348219e+01 -42 -42 -85
54 1 1.7288828668655814e+01 8.4981516764454756e+00 1.4515434550388633e+01 -9 22 47
165 1 2.1341633071566644e+01 4.4221399165834685e-01 1.2865296124999494e+01 90 -11 102
410 1 2.3226395925351923e+01 2.4548628402861721e+00 1.3919143613526197e+01 23 138 8
155 1 9.9804252385358438e+00 6.0511877409573476e+00 8.6254277919075442e+00 -48 33 33
312 1 1.0197066555267916e+01 9.3037140426662965e+00 1.5595575517901999e+01 -6 18 8
417 1 7.7398224248587937e+00 1.2181920491638863e+01 1.1135009104333083e+01 5 5 -19
345 1 2.3139965364261599e+00 3.6189807825261191e+00 1.5475617210067577e+01 84 139 -21
77 1 1.1303723376161019e+01 1.0846823695780751e+01 1.3838407242920916e+01 59 -27 11
511 1 3.4815112680745215e+00 1.0554248094897764e+01 1.2530768203620079e+01 40 8 97
433 1 5.5204034110622873e+00 5.7087331740166736e+00 1.4148221789068421e+01 14 -49 -46
359 1 6.3948661006291925e+00 8.4102164545677258e+00 1.3219441361985439e+01 -40 47 8
432 1 1.8263187849450667e+01 6.0176026174300921e+00 1.3770152627131633e+01 30 -57 8
241 1 1.7071101243561333e+01 1.1958379162601755e+01 9.4830203714737902e+00 -1 -109 -26
152 1 5.7737909813017847e+00 9.8704998721812700e+00 1.5366287292773293e+01 -58 -154 -8
127 1 2.0250543245352485e+01 7.7145144413484203e+00 9.7003817505176624e+00 52 74 78
348 1 1.9695224645167549e+01 1.2156041964702936e+01 1.0406181739586104e+01 -13 -19 20
116 1 2.1629782932251555e+01 5.4909497690672300e+00 1.0390090538238709e+01 -49 2 5
299 1 6.1428393046071479e+00 6.2630498990742165e+00 9.7149201189535912e+00 43 16 63
49 1 1.0633095786850754e+01 2.6023523756511074e-01 9.5092028917762281e+00 -14 26 -28
316 1 6.1613488886390408e+00 9.1334589846249354e+00 8.9037431205844566e+00 36 120 66
252 1 1.3797011495804046e+01 1.0817842569987612e+01 1.0987696796292887e+01 -50 -88 10
124 1 1.4599157613104401e+01 2.1633922134910577e+00 1.4841199490976271e+01 -52 152 -33
379 1 2.3245943486991806e+01 8.0406860267169975e+00 1.4013845356721784e+01 138 -7 61
57 1 4.1390166900099050e+00 7.8464557739771719e+00 1.1497504100562150e+01 -21 2 35
48 1 1.4215170462680995e+00 6.2841795595499157e+00 1.0945499805627305e+01 7 -3 34
198 1 1.8607380951556653e+01 4.0611972620584549e+00 9.5201863927417563e+00 -30 45 11
287 1 2.3980464492638106e+01 4.2410427893285263e+00 1.1647288921092686e+01 -20 -5 2
109 1 8.9573007510680718e+00 7.4654077946626325e+00 1.3870264099574689e+01 -83 -32 -50
173 1 1.0598426715366482e+01 5.0705130198892601e+00 1.4820864841430815e+01 45 52 -2
182 1 1.6239082538096902e+01 4.2503725480982641e+00 1.3625581469694199e+01 121 52 49
328 1 1.1773302387068229e+01 4.0067216779755785e+00 9.0177065152459743e+00 74 80 -11
14 1 2.0562277154675224e+00 8.1390048220880225e+00 1.5834155493030851e+01 55 -23 33
105 1 1.3054144381180002e+01 6.9564548870898744e+00 9.8953084784739946e+00 2 84 10
440 1 4.6725438662806944e+00 1.4674653731343423e+00 1.3042546364863583e+01 -27 -39 119
421 1 1.2603475539181499e+01 1.5966569842971705e+00 1.0922097709923682e+01 17 2 74
278 1 6.9271057418076056e+00 3.6041303071969817e+00 1.2431715994261806e+01 -92 -104 45
506 1 2.1184910030681277e+00 3.7478620331343460e+00 1.2765219044357647e+01 -19 -19 -2
473 1 1.9529695315928311e+01 9.7510812032738983e+00 1.1758235813767422e+01 -48 -34 70
275 1 2.3367449857955879e+01 1.0798490202953237e+01 1.3722593333556260e+01 34 -13 27
40 1 1.9551364056083983e+01 1.0006694395003242e+01 1.4424501936273515e+01 -3 38 59
113 1 7.4999865461516348e+00 1.6796607607863965e+00 1.4455127960762747e+01 -42 28 85
195 1 1.9329161269834139e+00 1.0613214370403933e+01 9.1937653843018516e+00 -13 -5 80
86 1 7.8237779555500548e+00 9.5062279345155396e+00 1.1098083731167323e+01 -44 -61 83
364 1 4.9151102980765300e+00 2.3725692096691025e+00 1.5459518462466679e+01 112 14 -18
123 1 3.3645789223869267e+00 3.7079303610510053e+00 9.0994474216367927e+00 -69 -4 2
454 1 1.5637218074410061e+01 7.5850138100799711e+00 1.0884796196346489e+01 -42 46 15
290 1 9.2613487058514554e+00 3.2280482632037062e+00 1.6352333006293470e+01 -8 -87 -76
102 1 1.5112299664358817e+01 3.1359565018936810e+00 1.0254369037930228e+01 20 -10 30
196 1 1.6601326417950588e+01 9.9418832539989452e+00 1.1892937230121154e+01 8 20 17
416 1 9.8900741922733033e+00 7.5311386819438226e+00 1.1307530137833764e+01 -6 -36 25
293 1 1.1411630025356185e+01 5.0588213936010256e+00 1.1767029002628030e+01 15 128 54
442 1 1.3298293088775166e+01 4.4016949097990010e-01 8.3744775940797762e+00 23 -14 -102
291 1 2.2190049533541522e+01 4.5964801109843467e+00 1.5474794391692111e+01 37 108 76
131 1 2.1453089972166605e+01 6.4707659572215603e-01 9.9886844490030366e+00 20 -31 -10
492 1 2.1054295920816905e+01 8.4977098099552109e+00 1.6067036089444539e+01 -1 -26 44
493 1 1.3209776177585518e+01 6.0637538385932475e+00 1.5994368461175577e+01 -49 95 42
381 1 1.0801156284125053e+01 1.0797934366117799e+01 9.1486971071827501e+00 23 -108 42
209 1 8.4902603944891464e+00 2.3583706721678781e+00 1.0083136829769741e+01 4 10 -42
246 1 5.5172992754866335e-01 1.6554764649416216e+00 1.5809268056704019e+01 87 59 99
380 1 1.9352128164583039e+01 1.7057825830069839e+00 1.6298593111282273e+01 -10 85 65
65 1 3.2876626950924503e+00 8.3298902130604180e+00 8.7643254571910774e+00 -37 69 -15
32 1 1.9199686787877472e+01 4.7986317579334621e+00 1.6164812930388763e+01 -54 108 -44
38 1 4.2661251115906245e+00 1.2330422633263296e+01 1.4992781285449817e+01 -13 55 -20
67 1 1.9846664068670762e+01 1.2233910517723134e+01 1.6079367606995120e+01 -20 -82 -32
213 1 3.4857420250571511e+00 5.8915729952729823e+00 1.6322769811909133e+01 -47 -9 16
217 1 1.6848318808607100e+01 3.0255654366686717e+00 1.6420865089206217e+01 98 -46 80
140 1 1.7112457785475634e+01 1.8341284052326166e+00 8.7127974378028554e+00 -63 29 -7
177 1 3.9477604873977028e+00 1.2392680753844749e+01 1.0302496416568022e+01 -25 -36 43
95 1 1.5709568662443044e+01 1.2246587014027030e+01 1.3292572701391888e+01 57 124 0
158 1 1.4396890232333961e+01 1.2031462825309152e+01 8.4706882251066062e+00 -62 61 -87
244 1 1.9784614199624432e+01 7.6677662763361436e+00 1.9410203660764367e+01 -33 68 5
192 1 6.2755886955552764e+00 8.1770298934932608e+00 1.7486138456531911e+01 -80 63 -48
206 1 2.8613190124034698e+00 1.0048540051383783e+01 1.9989815044591403e+01 17 -86 26
389 1 1.8273911569799452e+01 3.7256395232500652e+00 2.0995770874722638e+01 4 71 -17
398 1 9.1390810443499575e+00 7.1772823965313348e+00 1.8276516255630014e+01 -45 -29 9
387 1 1.2200833072878844e+01 8.8589307905016899e+00 2.1792730681332337e+01 66 -20 130
486 1 1.4694465583104833e+01 6.3384407633081299e+00 2.0255729552480684e+01 50 23 -12
395 1 1.7512532112636730e+01 1.1220419600962236e+01 1.8547063112310656e+01 -27 52 -57
333 1 1.4548040161589471e+01 7.2875727685732974e+00 2.2677191134863431e+01 22 40 31
334 1 1.6180094538534817e+00 6.2452276506458206e+00 2.0152206463126852e+01 42 66 12
84 1 2.1161508926619021e+01 1.1367332819562128e+01 2.0552315676585387e+01 39 63 35
203 1 5.6146012644679812e+00 4.9812852622005401e+00 2.3990936642115461e+01 101 -116 75
443 1 5.6740192189617682e+00 3.9935768671795597e+00 2.0026122279471796e+01 -101 23 -13
112 1 1.2241991838419040e+01 4.9050904395976209e+00 2.0248996443209151e+01 21 90 -41
425 1 2.2112040748515135e+01 5.3084568589626135e+00 2.0533976865898257e+01 70 29 -14
326 1 7.0610497896913560e-01 1.1649322955623388e+01 2.2502010128417357e+01 38 120 -7
264 1 2.0866421318269552e+01 2.0344250347685060e+00 1.8562989939104469e+01 -109 30 43
465 1 4.2860357335856953e+00 6.5579376187405938e+00 1.8818291530411599e+01 33 36 43
479 1 1.6922125528782821e+01 9.2950071999002919e+00 2.3742049142027774e+01 -32 -11 -44
351 1 1.1689214123477857e+01 8.1626648483378386e+00 1.7544234945706581e+01 25 -34 -64
355 1 4.7363362975981840e+00 9.7825441329217728e+00 2.4404751580542953e+01 -31 0 66
64 1 8.1120186716699250e-01 1.2084271293787532e+00 1.8890851982788188e+01 -39 64 21
267 1 2.3656301383855670e+01 3.2416142673035777e+00 2.0717926976262795e+01 -95 65 -56
110 1 2.3405914058873424e+01 7.4487235108395051e+00 1.9296261949136600e+01 30 -35 -36
280 1 2.0424456022931388e+01 1.0229561088216279e+01 1.8053688501572427e+01 14 -42 154
160 1 9.1488787429291190e+00 1.8807104157933006e+00 2.1919127389631171e+01 -20 45 47
232 1 4.0635806940595831e+00 2.1050652441814712e+00 2.1239792145281555e+01 93 37 26
74 1 8.9533033528579402e+00 1.1172485878150439e+01 1.7095583729909610e+01 10 56 -8
458 1 1.2752490201050168e+01 2.1662676820074740e+00 2.4192668918743717e+01 -36 45 -3
482 1 5.9809395911129892e-01 1.1419938654408318e+01 1.9811360463315950e+01 8 71 35
164 1 7.0293335430040349e+00 6.9865022050751655e+00 1.9963765132499169e+01 55 28 141
297 1 5.2587335704634048e+00 1.1217945175282702e+01 2.1239580853336999e+01 10 32 -19
161 1 1.0460757338544095e+01 6.0961417990549016e-01 2.4095221307107145e+01 34 -32 40
25 1 1.9948423171163174e+01 4.7253206148241516e+00 1.9112625610817624e+01 61 -78 -55
386 1 1.1788118929492931e+01 2.6420989515510076e+00 1.8093849794266493e+01 87 -39 2
142 1 1.5143995015539494e+01 9.9801933861955998e+00 1.7802076348416140e+01 23 15 55
437 1 1.3263446433438810e+01 2.5831954975169924e+00 2.1562404876839096e+01 12 10 -118
9 1 1.8985718069645872e+00 3.7895254585651119e+00 2.1502597905028900e+01 -34 35 11
255 1 2.3538978646119020e+01 6.8891953019436309e+00 1.6525430698781477e+01 -132 3 80
357 1 1.5811983377034966e+01 1.1845382385595052e+01 2.1347320344330935e+01 6 -16 -11
353 1 2.3442231942259887e+01 3.2564785821404922e+00 1.7724235167521368e+01 -173 69 100
338 1 2.2385038110879275e+01 2.0669915558746670e+00 2.2957791582738775e+01 -4 3 39
390 1 1.1067848361776158e+00 5.0202807058218699e+00 1.7608199534105413e+01 -11 -38 -22
190 1 8.0365275205002096e+00 4.6015839749223852e+00 2.1399069228432531e+01 91 89 22
385 1 1.1103873043492818e+01 1.0296584305996306e+00 2.0218386030136539e+01 51 27 54
285 1 2.2273948643483866e+01 8.8179613987205681e+00 2.1321334255058517e+01 -29 75 -5
87 1 3.7256156656189852e+00 7.0235751840199212e+00 2.3790626064172084e+01 -7 44 86
18 1 8.4844403428823885e+00 5.9959564750525400e+00 2.3627328524548282e+01 50 54 47
394 1 1.5585690046924350e+01 2.7760638686427872e+00 2.4458910010830994e+01 -107 -3 -16
306 1 4.9183776139315167e+00 2.2764052589032415e+00 2.3957629194884241e+01 -3 67 -63
342 1 1.9536781311757284e+01 2.1422917474832825e+00 2.3254155408882621e+01 31 -7 13
82 1 1.8888650163649974e+01 7.8231705633702635e+00 2.2224468144034780e+01 -7 -6 7
292 1 1.1071633164584355e+01 6.2425673703114439e+00 2.2455273877107373e+01 -16 25 61
90 1 1.4014982312808282e+01 3.4548840730092620e+00 1.7083811923226744e+01 -51 -41 -73
11 1 2.3308619062336916e+01 9.7954953877151780e+00 1.7976793681651909e+01 18 75 -47
305 1 7.5530867405568607e+00 8.6693267709553457e+00 2.3850386504872802e+01 14 96 33
34 1 1.4325789333566316e+01 1.0180725501589635e+01 2.2937297584652939e+01 -121 -19 125
42 1 9.5398668596611511e+00 4.5513585311689919e+00 1.9026133359298704e+01 3 75 -70
50 1 1.5313712887893912e+01 7.1567014148691594e+00 1.7742402541648733e+01 8 25 -37
409 1 1.2945842424968212e+01 1.0096800019058115e+01 1.9409620099258252e+01 -57 83 60
300 1 2.1168748797569215e+01 6.6953701309238349e+00 2.2734766859233513e+01 -83 71 29
344 1 1.0849001755146581e+01 1.1275078371459974e+01 2.2371597090280222e+01 32 -47 6
500 1 1.6070012813216909e+01 3.9024009043314383e+00 1.8972644451024564e+01 77 -86 61
400 1 7.1818800987087696e+00 9.3887070198818758e+00 2.1118967965344368e+01 62 23 -24
340 1 3.0544837161010143e+00 1.0440452030017671e+01 1.7147019614994022e+01 52 38 13
251 1 1.5921660795463202e+01 1.8242722990753901e+00 2.0954289301884792e+01 -41 28 -46
43 1 1.7478880317570898e+01 7.4040160291847879e-01 2.4143863220476145e+01 -12 -8 10
276 1 1.8008181313199749e+01 7.1734874220048246e+00 1.7006826959946164e+01 34 169 -27
85 1 2.1240555961103373e+00 8.2252787049634684e+00 2.1846381362648447e+01 17 39 -103
111 1 1.6695334786469008e+01 5.7975722876166378e+00 2.2098198555709654e+01 5 45 87
30 1 2.2584511959014197e+01 4.7229606318023931e-01 2.0209542071874225e+01 -83 2 -10
250 1 2.4210285338371182e+01 8.8909582463688679e+00 2.3270910307679348e+01 -7 8 167
339 1 6.5450947671269972e+00 3.6884107308961727e+00 1.7261274458214118e+01 32 44 1
498 1 1.6345181054373692e+00 4.7189688261366038e+00 2.4095910277715284e+01 40 14 2
323 1 6.8891652276110076e+00 7.4733245537191517e-01 2.2937092170901661e+01 13 -107 19
415 1 9.1111774827780287e+00 1.1134839074324422e+01 2.0159533001067675e+01 -57 -43 25
467 1 3.5063745332230631e+00 5.0304607137526713e-01 1.9287382307173885e+01 -62 98 52
133 1 6.4683128997653583e+00 1.2327767627816842e+01 1.6822541084286637e+01 -32 79 -47
98 1 3.5076103210651923e+00 1.8653590442574483e+01 7.6365967277088433e+00 73 66 2
490 1 2.3259777684894956e+00 1.7014997057001839e+01 7.2170261077242137e-01 12 -92 -1
35 1 2.3534334426111791e+01 1.3225516823563726e+01 6.8241111809804504e+00 -56 30 -44
29 1 2.2328009758141896e+01 1.2776677470265057e+01 4.4583990088206269e+00 53 -42 -31
63 1 1.6547252131090847e+01 1.4886313555820097e+01 9.1284805730065477e-01 9 1 -98
488 1 1.8076377389943199e+00 2.0847278060789154e+01 7.4986502724310213e+00 -20 -19 18
301 1 2.0164829801041105e+01 2.0335268183096954e+01 5.6220784164413073e+00 119 27 26
256 1 9.9200054016480355e+00 1.2790051941305911e+01 7.5617521227211819e+00 41 16 -36
193 1 1.9485093240421410e+01 2.1795037768684566e+01 7.9346268865418530e+00 -76 23 -14
69 1 2.2741797830037309e+00 1.8796212816971234e+01 3.9127271545239326e+00 -17 2 -7
358 1 1.3962857661865920e+01 1.7825773636218440e+01 5.6541951409117974e+00 -28 92 38
277 1 1.5549739787734513e+01 1.3625500296255321e+01 5.0657850214656488e+00 35 6 103
44 1 6.8225031476638902e+00 1.8709212874228839e+01 4.3162198215560625e+00 -23 -35 101
71 1 1.9708858342703891e+01 1.8565478169643033e+01 2.3525538930786545e+00 68 -67 -66
99 1 1.5134683672101859e+01 2.3236679373716164e+01 3.1661618080100267e+00 3 -10 44
100 1 1.6661261785629602e+01 2.0973470163462544e+01 3.3439878193689632e+00 52 -121 -14
51 1 4.8314111242226971e+00 1.2419373388172440e+01 3.2044984910732759e+00 42 -7 -47
237 1 2.2027838073593866e+01 2.2845252769551557e+01 5.5558305984362208e+00 19 -31 -21
352 1 5.3349501550545479e+00 1.5560702720072376e+01 6.7980411438638413e+00 49 -35 -68
480 1 3.2943313593095747e+00 2.4203493444546957e+01 7.5014077917878961e+00 14 -54 84
310 1 1.3614648314766603e+01 1.8419370799725353e+01 2.8216022690319220e+00 -12 -12 14
373 1 1.9311826161689364e+01 2.1198694719952591e+01 3.1639106946766500e+00 50 43 -47
281 1 2.4130991087007652e+00 1.2863966637709551e+01 2.0523214309750433e+00 33 -33 109
365 1 1.3411605982991309e+01 2.4450372436233511e+01 1.5270980329960022e+00 -9 68 -35
70 1 2.2411510122613898e+01 1.8451238573017879e+01 1.7162166598063053e+00 87 -3 15
447 1 3.9656600692805739e+00 2.2188424424365401e+01 5.9765977939541548e+00 -4 -123 25
249 1 1.0384509639133054e+01 2.1849988835435624e+01 2.1096078592349876e+00 -67 -49 -36
495 1 7.7568816774086535e+00 2.0545046352140012e+01 1.9192678643740770e+00 -30 10 -64
162 1 2.3951362048027701e+01 2.2308136696142391e+01 3.4163101444943993e+00 -32 10 1
477 1 1.1383664379309987e+01 1.8510186600775398e+01 6.3162114088628849e+00 37 -7 34
404 1 7.3021787766239967e+00 1.7602242732648627e+01 1.6672100420842240e+00 -28 135 48
476 1 5.7863358237654952e+00 1.5097938526193420e+01 2.5410234843626762e+00 -31 -6 -56
435 1 1.1721177654517071e+01 2.0177298740307307e+01 4.2101308313651629e+00 -46 -11 -19
368 1 1.2298345827317187e+01 1.5942162628091891e+01 2.9956967991075012e+00 43 -34 44
39 1 1.0678174709913648e+00 1.7270991359784997e+01 8.0882115830933135e+00 -2 46 46
58 1 4.4682694685710285e+00 1.7556806611626431e+01 5.0762376854459346e+00 0 -14 1
88 1 9.6355568098500122e+00 2.2633717622384957e+01 6.4863571831144329e+00 -22 17 55
134 1 7.5195315219036898e+00 1.4922390346083034e+01 4.7721334329587348e+00 -74 -15 17
459 1 1.2426576511035174e+01 2.2553486420094949e+01 5.8190160870568697e+00 57 -22 45
28 1 2.0572210236975824e+01 2.3609720984583884e+01 1.9634827397532979e+00 13 36 30
240 1 1.8009087816078551e+01 1.6309801477090705e+01 7.7555913084345667e+00 -221 131 56
330 1 1.5000010864029093e+01 1.8814710567948772e+01 8.0278845447022054e+00 -11 19 33
170 1 2.2583737059329351e+01 1.9854305357248833e+01 4.0912775910168095e+00 6 42 -17
22 1 2.0466089457214586e+01 1.8569117193631385e+01 7.8703342066246380e+00 1 -71 74
478 1 1.1177727636594234e+01 2.4295798889781079e+01 3.5572999921034394e+00 35 -7 32
117 1 2.2914690212318462e+01 1.4231322199872478e+01 6.6362696234730234e-01 46 47 94
93 1 1.8071007509428835e+01 1.6354011521676323e+01 2.9122423532869823e+00 -34 -12 15
27 1 1.1772412618149836e+01 1.3082181707102714e+01 5.1766787965459038e+00 16 -23 59
376 1 9.0019021375837607e+00 1.7314319432058355e+01 5.3720992869208386e+00 -76 -7 -8
346 1 3.0750599504227338e-01 1.9058560889383390e+01 5.9632705221813653e+00 46 30 -116
315 1 1.3094427478264825e+01 2.1003410012251585e+01 7.8129827563449661e+00 -76 89 87
200 1 9.6079540862196957e+00 1.4113384367613532e+01 7.1827569065759578e-01 64 96 -18
497 1 7.3628058967894141e+00 1.7567742641149550e+01 7.7728700756433247e+00 1 29 26
504 1 5.3297740309279833e+00 2.2864981650337935e+01 3.6282000967964017e+00 -37 -23 44
148 1 4.3361131826504149e+00 1.2963061140148836e+01 5.7644044483444770e+00 -43 42 74
216 1 1.8167879764088855e+01 1.4837558679674702e+01 5.2994848858228316e+00 -29 3 161
224 1 2.0928831538391975e+01 1.5338243198438569e+01 4.7452095286549918e+00 58 -86 -2
327 1 7.8815749651715956e+00 2.2233957033263572e+01 4.5071765292032966e+00 83 -7 3
489 1 2.0798121274750404e+01 1.5974888089518457e+01 1.9431738742325455e+00 75 187 -39
402 1 1.6341487524692912e+01 1.8317938635867453e+01 4.1129811801789629e+00 37 56 -32
3 1 6.3102036472720169e+00 2.0700520329839218e+01 6.2056904285690848e+00 11 54 25
143 1 7.1863631975195457e+00 2.3321171898698775e+01 9.5010188981763644e-01 42 0 1
441 1 2.1820143202143640e+00 2.1601351497478834e+01 3.8028562250751166e+00 -5 -65 -16
452 1 9.0447536722743571e+00 2.0018606529729183e+01 7.4655881243753806e+00 9 -1 80
211 1 2.4489932081107909e+01 1.4031338328609955e+01 2.9292261075933079e+00 -35 13 -22
283 1 2.4320417186299064e+01 2.1770694215074172e+01 6.1380561189024108e-01 84 -38 69
475 1 1.9746516872775699e+00 1.2780700544713994e+01 7.1508521025112559e+00 11 -14 -11
318 1 2.2086692196668402e+01 1.6723708375663904e+01 6.7803770311077400e+00 28 4 156
167 1 1.5278328230330791e+01 2.2875533727079024e+01 5.8568891171793407e+00 27 -22 3
427 1 9.3131740853134151e+00 1.6008789484035937e+01 2.8879031869429626e+00 123 -20 32
145 1 1.7808612540940430e+01 1.9134692222844524e+01 6.7300055822701284e+00 26 -7 -50
260 1 1.3627868959444150e+01 1.4525874741086840e+01 7.9418059825156790e+00 -28 2 56
187 1 2.4438687229268933e+01 1.5722319659565979e+01 5.5919690169583554e+00 5 16 -8
21 1 1.3358786556086876e+01 1.5264066993735899e+01 5.2542692686275529e+00 12 1 -113
23 1 2.3231261911993109e+01 2.3784068538980272e+01 8.0476409159183042e+00 54 34 4
460 1 2.3509251554714094e+01 2.1109989774028726e+01 7.6871544217995096e+00 -114 126 38
397 1 2.4485465548754377e+01 1.6961979977888173e+01 2.9363167438839022e+00 -43 50 -40
179 1 1.3812526183480859e+01 1.5531703147053660e+01 6.7621291198769329e-01 -76 -70 -38
220 1 1.6635135407922817e+01 2.1431833844555072e+01 8.0956271531765260e+00 51 0 2
7 1 3.4038044701137888e+00 2.2642788760356510e+01 1.4920153358904527e+00 52 2 60
37 1 1.7709658223938778e+01 2.4110124450050037e+01 2.3878123756157534e+00 42 30 -45
401 1 1.5099859150190770e+01 1.2797093619978551e+01 2.5387734398676756e+00 33 7 17
370 1 1.0040610369715397e+01 1.2701398087442609e+01 3.0763147017470782e+00 -30 108 27
114 1 7.3809169025568124e+00 1.2825365799729628e+01 1.5763154869480844e+00 -12 15 -11
507 1 1.9297661459027783e+01 2.3839811859424572e+01 5.9784640552591082e+00 -67 21 -19
202 1 1.6456611377230146e+01 2.0647584355073121e+01 5.1276235709076445e-01 29 97 -19
423 1 1.3365108301470032e+01 1.9079920062559509e+01 3.4355873369344891e-01 -16 4 55
392 1 2.0782285574835779e+01 2.1179787451437008e+01 1.6081580068050691e+01 20 10 -63
268 1 2.1123518019289300e+01 1.9387962159857892e+01 1.4009833931914471e+01 -122 1 -6
501 1 1.1482638400868732e+01 2.1168281258769508e+01 1.0063261608304604e+01 34 -16 -5
382 1 8.6271413398049379e+00 1.5794409445714001e+01 9.5908549327409141e+00 53 -12 55
499 1 7.5668671350565662e+00 2.3832959708534087e+01 1.1446308912330940e+01 38 -29 -63
494 1 2.6726746859302697e+00 1.7687735855650253e+01 1.3619351779851971e+01 -9 60 -89
75 1 4.2212355859700601e+00 2.3067043988222114e+01 1.2849095898459348e+01 9 36 7
243 1 7.5004066561460914e-01 2.3858484948258834e+01 1.0465953105563676e+01 14 -40 -12
106 1 6.8575197499654692e+00 2.0221418406129615e+01 1.3674761582243699e+01 17 -12 -4