LAMMPS data file via write_data, version 4 Jan 2019, timestep = 500000

512 atoms
1 atom types

-1.7196594767797890e-02 2.4852196594698913e+01 xlo xhi
-1.7196594767797890e-02 2.4852196594698913e+01 ylo yhi
-1.7196594767797890e-02 2.4852196594698913e+01 zlo zhi

Masses

1 18.0153

Atoms # atomic

190 1 1.9592414231888768e+01 6.1537318699517431e+00 1.1924947619562760e+01 126 80 0
467 1 1.6285086415407754e+01 1.1146251935734677e+00 6.5933397676373806e+00 -13 107 99
194 1 1.1889161067081112e+01 1.2368467960820670e+01 6.7850268305297865e+00 38 171 49
117 1 7.0325308250984238e+00 9.6306145955439906e+00 8.0898891838883280e+00 61 18 99
5 1 1.6636664359213292e+01 5.1122646601039419e+00 8.7039993346929609e+00 129 67 24
251 1 1.4101581710294994e+01 3.0715362288752508e+00 6.5044735309139430e+00 -43 29 -61
130 1 2.0905969496432853e+01 1.9649270264851550e+00 1.6308271139518800e+00 -92 -20 91
275 1 1.2969687660395527e+01 6.0778903808753659e+00 2.7540800217289885e+00 77 -8 56
151 1 2.2174764418631689e+01 1.0543851838001331e+01 5.0799452737842445e+00 -76 -82 -25
338 1 2.0821411161387893e+01 5.8176686665941038e+00 4.0749692474638852e+00 13 49 48
347 1 1.3403461260309109e+01 7.9904251391556471e+00 7.9788205412373623e+00 -66 -21 -18
168 1 4.3170948963710440e+00 6.9474086875506469e+00 4.7179518684896786e+00 56 -140 -149
389 1 1.2740114705774930e+01 9.3459414342083296e+00 1.0378566236720772e+01 46 98 -55
44 1 9.0290146277643508e+00 1.1359388140820867e+01 5.0424705158887209e+00 -6 20 70
16 1 2.6263300807686809e+00 6.5345745643376816e+00 1.1470994811050312e+00 128 105 -22
476 1 1.5122567524823308e+01 4.0838609896979385e-02 9.1792939450694071e+00 31 -72 -42
472 1 4.3971073351749048e+00 8.1921307130262253e+00 7.4927550670394290e+00 16 36 7
84 1 4.0877699906273595e+00 1.0432591455943616e+01 2.6572206680197876e+00 35 145 33
321 1 5.5055303195254996e+00 1.1130360493152153e+01 1.1563966180521682e+01 45 17 -27
17 1 5.0876473368325827e+00 3.0043457420878745e+00 1.8179382989930399e+00 53 41 -9
490 1 8.2772885073820515e+00 1.5243024641920260e+00 7.9094401496220899e+00 22 -154 -22
118 1 1.0142526623943398e+01 8.9844401137299954e+00 5.9172621586069676e+00 -61 165 -55
172 1 9.2014187821581377e+00 4.8349844665423927e+00 1.0708187963587925e+01 45 -152 4
124 1 3.7656248115303559e-01 7.8652937212902971e+00 9.9040739071052339e+00 -58 152 -48
10 1 2.4294745136680397e+01 1.0004257617162589e+01 6.4802653758820918e+00 -77 50 -30
438 1 1.6490755146494635e+01 1.1490008108240033e+01 9.2856617609770424e+00 83 17 -66
71 1 1.2764283267300762e+01 1.5868769051692917e+00 9.4760531453385930e+00 93 -76 -116
252 1 1.0016906637977533e+01 7.8116606248718012e+00 1.0595404682367219e+01 -35 -111 5
425 1 1.2643543142656333e+00 5.4273807593255547e+00 1.0972380346964686e+01 52 59 42
98 1 1.9464405129339810e+00 6.7599835681868470e+00 4.3337166737195831e+00 102 61 -31
473 1 2.0801150873083010e+01 8.8083184957705978e+00 9.5645793113844508e+00 -55 -31 28
36 1 1.1743620664808022e+01 4.1352948510600633e+00 1.1781599060743092e+01 28 108 139
371 1 2.4498848394645762e+01 2.4389957791238741e+00 9.1173650881710966e+00 -33 72 -62
270 1 1.5624398843195507e+01 8.8367767933079850e+00 1.1790461646679519e+01 -17 136 118
123 1 5.9550750856621337e-01 1.4566730839332029e-01 5.4469229058202160e+00 -143 -37 -26
126 1 1.8225534562351605e+01 2.7083773547690440e+00 5.8953573134662340e+00 -124 -10 -20
183 1 2.2822221030426313e+01 9.0232069519193878e+00 1.7604638325618058e+00 36 136 27
402 1 1.0630847958185992e+01 1.0614153262562146e+01 2.5106110248354927e+00 60 109 -30
215 1 1.9167504316607136e+01 7.8545566074777859e+00 6.4600042965324471e+00 -33 -158 -52
443 1 1.8122257781412394e+01 7.7790901583998706e-01 1.9200616070997163e+00 -158 16 1
226 1 1.7193292983017443e+01 1.7874883822960377e+00 1.0187219035083558e+01 -44 47 18
1 1 1.6507731781550760e+01 1.1898213377919372e+01 1.2050925369851054e+01 -65 -75 78
422 1 1.9252932092454223e+01 1.2017660395668718e+01 9.0476208989430074e+00 11 103 71
361 1 2.0216869117570269e+01 2.5283542927955533e+00 1.1417259768843710e+01 -65 89 85
362 1 2.4637855697640866e+01 5.3156434564108590e+00 7.5022689277906185e+00 -31 -66 -110
42 1 2.2510899199179278e+01 6.3881487227961822e+00 9.3672461357424659e+00 -37 127 -35
260 1 2.1112421354381198e+01 5.6517970805646982e+00 6.9576013772220833e+00 -83 55 92
477 1 1.9840230556957692e+01 8.5461825874587050e-01 8.7224512080547907e+00 -68 -19 34
310 1 8.6088028944655637e+00 7.3633726331344382e+00 4.0082432811411994e+00 9 -67 43
111 1 1.0623295313210770e+01 3.7750044886915362e+00 2.0605247242527454e+00 -63 -11 88
465 1 1.1548114267732446e+01 2.1808460963792755e+00 5.0492705796879180e+00 74 88 -13
236 1 4.7464254470218972e+00 3.4972715760365474e+00 4.7174159118581827e+00 58 150 62
304 1 8.2026702052057345e+00 1.9491131793950531e+00 1.0536548212189089e+01 14 -56 52
410 1 2.5303388889231599e+00 2.9479803334562753e+00 9.6971155579763639e+00 59 128 9
383 1 1.8064806081525360e+00 1.0293171793761500e+01 1.1910655334113475e+01 -29 76 14
317 1 1.3116402437032546e+01 9.1230465569104382e+00 4.9654939075863047e-01 143 -19 -63
340 1 2.3846530614254220e+01 6.0388137626264387e+00 2.3332601060412999e+00 80 29 38
299 1 8.9377876719771372e+00 3.1206869149518841e+00 5.4074838612994558e+00 32 -10 89
220 1 7.7753574953605993e+00 7.3970926679805526e-01 3.9818030390217078e+00 35 -8 -3
101 1 3.7281877007835744e+00 9.9878157812744615e+00 9.2848769797550581e+00 -2 38 103
488 1 1.5528095820447170e+01 1.1198312665234722e+01 4.7381571653728498e+00 -57 20 -40
152 1 1.8282942566958482e+00 4.2009322767782153e+00 4.1542021528337365e+00 18 -147 -40
169 1 5.6402429120760305e+00 2.9234807284382054e+00 7.5169228126645198e+00 -16 48 52
73 1 1.6553692072789625e+00 1.2075349688070418e+01 9.1643073652312506e+00 -55 19 10
51 1 5.9266865399722448e+00 8.7767485405865759e+00 3.7987457182798541e+00 129 94 -45
244 1 6.5201510523598625e+00 1.1023856243802753e+01 5.6141925720415964e+00 -52 75 -11
325 1 3.6477235168666478e-01 5.7474100568125530e-01 1.2035212863944446e+01 -76 48 67
342 1 7.5671891596945384e-01 8.7756124667850131e+00 3.0666115757528916e+00 9 -43 -5
205 1 5.7904705635994027e+00 5.0918266057942185e+00 1.1037609338106712e+01 -13 -33 1
376 1 1.6824080774000244e+01 6.9947132795569633e+00 4.8987074736744241e+00 -161 -115 -20
248 1 1.5048628227965111e+01 3.9640416382994608e+00 3.9862421534034009e+00 -38 36 8
447 1 8.0182283790332214e+00 8.7001434477322537e+00 1.1610714679608067e+00 41 -28 -73
54 1 5.4413912108648423e+00 5.8890027767947881e+00 8.3899400634253851e+00 34 51 81
284 1 2.1653876957911095e+01 2.7966221187291982e+00 3.8333641050970728e+00 -110 -82 -9
496 1 2.3788586207499762e+01 4.6569016176505205e+00 4.9327815848823224e+00 77 -34 73
159 1 2.1056311093641078e+01 6.2600903265027057e+00 1.0250192786689665e+00 -41 77 119
32 1 2.0554378937725261e+01 1.1094156562976256e+00 5.7868134960257871e+00 -84 87 -120
95 1 1.3639988819016522e+00 1.1596736859466347e+01 3.4890099037868425e+00 81 103 40
469 1 1.9184043527278249e+01 8.6571900483730566e+00 4.5630743040655347e-01 35 41 60
81 1 1.5316504855166833e+01 6.1088707786148237e+00 6.7334614733950096e+00 76 44 -35
200 1 1.5464784253004353e+01 6.4003455199768986e+00 1.4003656155487176e+00 97 63 -25
303 1 1.0660838996825319e+01 5.4414108489500999e+00 4.6484318816904198e+00 45 -71 184
173 1 4.7376690634755123e+00 6.3319719672502972e-01 3.7642910061576442e+00 -1 51 2
127 1 1.8191232893947692e+01 7.3035004932824377e+00 9.2809600647811159e+00 30 0 26
384 1 2.2159544854303668e+01 1.0764567765805236e+01 1.0703821653987358e+01 -13 -46 33
149 1 1.9225103587629981e+01 3.6668766790837983e+00 8.1395651274777361e+00 -71 11 34
249 1 1.8576976863096185e+01 9.7846159104357842e+00 3.1482354003617932e+00 -47 -64 -51
122 1 6.8125824883031560e+00 5.4966788537571167e+00 5.5715593264936718e+00 -3 -10 20
363 1 1.9973574576518182e+01 1.0419431844721744e+01 6.7616164194264332e+00 5 -65 23
343 1 1.3011912830977344e+01 1.8553711571054166e+00 2.8061918678389453e+00 -43 17 121
404 1 1.8821095790111166e+01 4.2895550508735871e+00 1.5026564770009825e+00 -17 171 60
341 1 2.0990375621717973e+01 8.5918731080395858e+00 3.7367631967909634e+00 22 -96 35
186 1 1.5934609411491866e+01 8.8816385746523316e+00 2.8332768229750442e+00 1 119 54
247 1 7.9120713103388427e+00 1.1530332569025015e+01 1.3917807181430506e+00 -28 -23 40
86 1 1.6366296393016533e+01 8.6992231970889637e+00 8.5267489310175595e+00 -69 -99 108
216 1 2.1937280986200022e+01 1.1643964272012106e+01 1.4501926348451715e+00 -15 57 172
187 1 8.4433733850044064e+00 1.0350494165208493e+01 1.1511404671011768e+01 25 67 -52
225 1 1.2542312655087880e+01 8.6283172380162254e-01 1.2218088064416062e+01 74 93 39
49 1 4.6335788599703925e-01 4.0560116453409760e+00 1.3254462089349517e+00 -19 43 -9
497 1 5.2806748291833951e+00 5.9728190366961895e+00 1.5440847889084217e+00 19 46 29
434 1 1.8320196911932030e+01 4.7057474614214412e+00 4.2599085192101960e+00 102 -30 -92
164 1 8.0080391178468115e+00 2.8636493840211115e+00 1.2736518138465482e+00 17 97 67
306 1 1.3382948165243937e+01 1.1886283356230505e+01 9.3347697829698735e+00 15 60 -110
161 1 1.5238745917116320e+01 3.8159689234162566e+00 1.0626166209305531e+01 74 -39 13
179 1 2.4486149001416329e+00 5.1571315798460295e+00 7.6820482113161592e+00 -78 -86 -45
141 1 9.2042025179972100e+00 1.0994675575122818e+01 8.6319974938389894e+00 128 38 -30
106 1 2.9157350903839867e+00 1.2661843653052820e+00 7.2254975792455749e+00 66 -22 -20
327 1 7.8997581697246098e+00 5.4594753972224774e+00 4.2603105361183330e-01 70 -21 5
483 1 1.2599786305206557e+01 8.5412943287132439e+00 3.4953679114375000e+00 23 41 7
142 1 1.1191329270645642e+01 6.1174375794715736e+00 7.7324998751998466e+00 52 -60 31
85 1 5.6090532152075867e-01 1.3717133586958448e+00 1.0886435805821020e+00 20 102 -66
500 1 1.2960122977496107e+01 4.2740046149228386e+00 8.5040094514956976e+00 105 -60 37
155 1 8.1973431480715426e+00 6.9336797753311084e+00 7.7579374303760611e+00 -115 15 -15
25 1 2.3805090113364692e+01 1.1605234641156988e+01 8.6682928367580203e+00 81 -44 -55
414 1 1.3317796738132770e+01 9.9892618032631724e+00 5.8898053085250863e+00 15 3 63
167 1 1.4719316553732125e+00 8.3190979255726898e+00 7.3129343400364153e+00 141 -55 30
279 1 2.2357784293105716e+01 3.6982602799476787e+00 1.0316383246312320e+01 -57 133 72
170 1 2.3479669699426424e+01 1.8385903363998655e+00 6.6098702008586265e+00 -13 37 -1
102 1 2.2913594740890090e+01 7.8293135534278538e-02 8.3039862719925528e-01 64 -38 47
437 1 1.4539249072229353e+01 1.1471012037884170e+01 4.9349837887315617e-01 55 -24 -165
39 1 5.5699240987051901e+00 2.0382455732057934e+00 1.1117266961280620e+01 21 79 14
291 1 1.5956391060979572e+01 3.1579711621710795e+00 1.3313963331006113e+00 34 134 65
346 1 1.5337786306114944e+01 3.7355264619002349e-01 3.8197867814406439e+00 62 58 -176
375 1 1.9399108084412852e+01 1.1248323243767437e+01 1.2210277991536710e+01 -17 84 -167
114 1 1.0679030539070151e+01 3.8785529199764573e-01 8.6530588918446032e+00 -16 -10 41
138 1 2.7427999892190278e+00 9.4920227710873704e+00 3.9301953914336862e-01 173 69 18
210 1 1.7852206228763350e+01 1.2395149994078395e+01 6.0322600987376109e+00 -47 0 53
333 1 1.3180496901001080e+01 1.2372015351244874e+01 1.2092039494911081e+01 40 23 51
308 1 5.4650917605631140e+00 1.2377015682207936e+01 8.5511512063137509e+00 53 62 128
89 1 2.4151200747658038e+01 9.8587797725644926e+00 1.2346706612408983e+01 -11 37 -197
359 1 1.8428114607733228e+01 8.6166861559747367e+00 1.2382126457018391e+01 -58 18 -26
3 1 1.6227322896447532e+01 9.0863440991176407e+00 -5.4784352407324377e-03 32 45 -24
292 1 2.2735395698862646e+01 3.6963326087729556e+00 2.2807465030183494e-02 -50 82 113
41 1 2.1469785353196720e+01 3.5752323931581333e+00 2.0451825046727471e+01 47 -108 23
460 1 4.1911822660259830e+00 2.0409526661706248e+00 1.7064913047948458e+01 -136 140 -14
424 1 8.1934780255313946e+00 3.5209608334325453e+00 1.6035996714566593e+01 39 -5 -48
12 1 2.1430872478615619e+01 5.6544477058675131e+00 1.8397832535294519e+01 33 -43 111
80 1 2.4200236622352165e+00 1.7952371977531908e-01 2.4117943828690564e+01 123 -22 38
65 1 9.6567800584864507e+00 8.1771639490741883e+00 2.1937818720507011e+01 -106 58 25
131 1 1.6140824701018957e+01 5.6057576317182995e+00 2.3677365234766199e+01 -32 14 16
33 1 1.9731377983487079e+01 1.2087777750565043e+00 2.2753211777277514e+01 -107 -53 -36
445 1 2.3360174652628245e+01 2.3799597287189349e+00 1.3483144892183631e+01 102 -10 -46
401 1 1.6049473104501836e+01 1.1614329538640920e+00 1.5733394077610715e+01 24 -12 -38
507 1 1.7433685651944856e+01 1.0037431682853798e+01 2.0082361969513286e+01 -43 53 -39
289 1 2.2613806252588162e+01 1.2021564315245797e+01 1.8463675322288580e+01 31 11 -16
273 1 6.5032086064446002e+00 7.6158873031901972e+00 2.2155994818945594e+01 -1 143 78
430 1 3.4862804896519699e+00 8.6419698303060120e+00 1.3485666990154149e+01 107 6 5
462 1 1.7066874871952484e+00 7.9267664101762216e+00 1.5536625482346736e+01 -57 54 -4
433 1 1.9472719364748407e+01 7.6736530091322601e+00 1.5340934902915860e+01 13 -133 -37
59 1 2.2668484278159227e+01 9.8063280992051247e+00 1.9886987709648679e+01 16 -103 160
48 1 2.3656779951558221e+01 1.1458412034787305e+01 1.4655881901115915e+01 -17 67 -12
296 1 1.2048294934498561e+01 6.8933312026953439e+00 1.7703756525094263e+01 -31 -86 103
238 1 1.6271741004741557e+01 9.3784647808132493e-01 1.8512311843229732e+01 107 27 -36
53 1 6.8041906620507540e+00 1.1352716939154908e+01 2.3694645345014543e+01 55 84 144
391 1 6.3925798520301191e-01 1.0327728627392485e+01 1.6976345028480573e+01 -93 -23 -54
474 1 1.3866394499549724e+01 7.2769595026583085e+00 1.5386976252238071e+01 -10 -29 -20
316 1 8.8617919569971431e+00 1.0980632110074385e+01 2.1493571228990000e+01 104 66 101
280 1 1.3569925302184153e+01 6.1806987163211566e+00 2.3261090872531909e+01 41 -55 138
336 1 1.7237071865537366e+01 1.0734972176732644e+01 1.4936017106740946e+01 27 6 -23
26 1 1.8007482248089993e+01 1.2210308025632049e+01 2.1549598897154596e+01 -66 35 40
322 1 2.2541442501662921e+01 5.0142753794973389e+00 1.2662122064191239e+01 37 134 47
353 1 9.0839652297264575e+00 1.2269336579904040e+01 1.3484045252752091e+01 -149 83 131
355 1 8.9617104754718877e+00 6.1844740875841859e+00 2.0303272038677385e+01 -9 13 39
271 1 1.0819035794060454e+01 3.1154999156072288e-01 2.3260999656346847e+01 70 49 -98
388 1 1.2686968638529809e+01 4.2577011000483234e+00 1.4315325057192709e+01 91 -7 -10
330 1 1.9481707788917205e+01 7.6925689950148719e+00 2.1793371502856537e+01 -12 48 -4
337 1 2.2999732648943954e+01 8.2906979652563244e+00 1.6648570427886881e+01 40 -14 -68
198 1 1.3569602295508263e+01 5.1097600079096972e-02 1.7843154354494970e+01 -23 33 8
379 1 2.1543549087051481e+01 5.9805093764480119e+00 1.5276849126821460e+01 152 14 60
193 1 6.4534193215606299e+00 4.9562437486584647e+00 2.2386867352268887e+01 -142 20 2
345 1 3.7174344921810298e-01 8.4691119617287196e+00 1.9236532780359482e+01 110 194 -27
35 1 1.6427411614404150e+01 8.1765967770091379e+00 1.5853033335937578e+01 -11 21 -80
441 1 1.4499042410096619e+01 2.3526319731288270e+00 1.3394435445705602e+01 -20 -48 5
82 1 3.5015237733199336e+00 5.9332160049287710e+00 1.2649076523637401e+01 -60 -17 9
412 1 2.0331853232594028e+01 9.5855168615404303e+00 1.6426050505851663e+01 -77 5 -27
37 1 2.2411937777179595e+01 1.0081757730127709e+01 2.2636828214337193e+01 75 -24 -26
211 1 5.7518556276788910e+00 9.0490918970435352e+00 1.8335850617115163e+01 -56 43 4
199 1 1.9296798926131900e+00 8.8142183339283964e+00 2.1422807130942680e+01 41 61 8
214 1 2.5775527965485847e+00 1.1059666009365451e+01 2.2482084726762785e+01 96 85 12
69 1 5.1637609266175337e+00 4.8965885435054446e+00 1.8351449945284394e+01 -11 -31 -56
451 1 1.5956611494273210e+01 7.7758585142059138e+00 1.8551660220902669e+01 118 43 2
219 1 1.3404891452157948e+01 9.4880424756604800e+00 1.8352423315361349e+01 -80 -10 -18
459 1 1.3712994291741220e+01 1.1427656453328622e+01 2.0947226432908167e+01 72 24 142
47 1 2.4804419417751909e+01 5.6976694363761426e+00 1.9739505379942557e+01 -80 105 -89
349 1 2.0701832856853756e+01 8.2061207795630793e+00 1.9282004545233569e+01 -59 14 81
115 1 2.4103216944207347e+01 1.2291275124804436e+01 2.1976828251697292e+01 36 -144 14
120 1 2.2399907912438293e+00 5.0996502479025363e+00 1.6300010337000970e+01 -39 -27 13
133 1 2.4448624179611059e+01 1.0474791697023189e+00 1.5956710470528341e+01 -64 114 -47
439 1 2.0595234170755845e+01 3.4029173016849414e+00 1.6006044751469481e+01 26 -90 -135
119 1 9.8236731983144701e+00 3.9980315706172993e+00 2.2367289022191706e+01 40 82 144
143 1 2.8642892278305068e+00 5.6808928577971329e+00 1.9706201914342991e+01 -3 90 34
145 1 1.2758097290882288e+01 1.0700543041102346e+00 2.2300974437246055e+01 60 5 -111
288 1 6.3824768264120380e+00 9.3265160328688239e+00 1.4239975122233091e+01 -87 -97 -38
440 1 2.1960864552507921e+01 6.8781507118805463e+00 2.3057061087438640e+01 -71 -68 62
261 1 2.2490798252343533e+00 8.2835437624893782e-01 1.5357870991270323e+01 25 70 -76
217 1 1.6387925214030268e+01 8.1196934205801021e+00 2.2148772015683342e+01 60 -58 94
417 1 7.9956936085129140e+00 9.1424524402692260e+00 1.6420880752739116e+01 25 34 32
295 1 2.8946635990185419e+00 2.2675403355965793e+00 1.3000540751785055e+01 -61 56 -60
125 1 5.8813649894763680e+00 2.2645422990512123e+00 1.9995943686776712e+01 8 -65 -11
240 1 2.6768194427893168e+00 4.7420267135108283e+00 2.4060544131693895e+01 -196 168 61
487 1 1.2858355989212551e+01 1.1047966322747136e+01 1.5858314597399508e+01 3 63 -7
235 1 2.3633123527817602e+01 4.1998789634335090e+00 2.2163595030809702e+01 -38 -116 137
455 1 1.5178204649688270e+01 4.4594102954044228e+00 1.6155602960550866e+01 64 109 37
407 1 2.4107207400017721e+01 7.6124932164854453e+00 1.3797434196343984e+01 -13 12 78
43 1 4.8289532314749080e+00 1.2194708687455968e+01 1.4592839147631960e+01 -61 -56 -9
66 1 1.8976190231462020e+01 1.0765921194751376e+00 1.5153913850152700e+01 -37 62 -61
62 1 2.0985872906418379e+01 1.1387563879246640e+01 1.4287158071912383e+01 21 -70 -2
335 1 7.3071314723188436e+00 1.0900695229368115e+01 1.9254511601925266e+01 -22 39 59
372 1 2.9483209779143205e+00 1.2180330287760761e+01 1.8302458867180754e+01 19 -6 -7
427 1 1.7037751929155284e+01 5.4739024361326294e+00 1.4820287899396053e+01 133 -12 10
137 1 1.1166025179672907e+00 6.2297778837929405e+00 2.2557255072288612e+01 12 -16 -11
77 1 4.1485110036470463e+00 4.1846172638522265e+00 2.1543720464461387e+01 96 12 48
208 1 2.2482960437774480e+01 2.5687022095621832e+00 1.7977903632472753e+01 31 111 29
70 1 4.4809363076804827e+00 8.4527541062477205e+00 2.0378154478015688e+01 19 -75 -2
421 1 1.2614118902170734e+01 2.9205334046476108e+00 1.7019838035004717e+01 -9 -17 44
326 1 1.9479924167543871e+01 1.1560510935801034e+01 1.8407657077778985e+01 17 123 37
52 1 1.1617374659162540e+01 7.1372770372581638e+00 1.2908492344145785e+01 74 -87 162
354 1 5.4269499754369175e+00 4.4595361225262984e+00 1.5560889271043267e+01 37 64 14
31 1 9.8825439717009615e+00 3.8431537481224787e+00 1.8643983589505723e+01 -23 -56 88
448 1 5.4598343537512284e-01 3.5960420186549276e+00 1.7907618969945318e+01 35 -49 -40
364 1 7.3508105406271875e+00 6.3883495759763678e+00 1.8182719913001982e+01 167 33 49
160 1 1.1185870535768746e+01 5.3833018543305808e+00 2.4161331438205970e+01 -5 97 3
313 1 1.1867529675767992e+01 1.6669403842120795e-01 1.5149195624568502e+01 -67 69 27
243 1 9.5720035201279596e-01 4.3869093294266737e+00 1.4012740734753502e+01 -23 18 39
29 1 1.8468622883773612e+01 2.1092641412390822e+00 1.9736396701557616e+01 142 -65 -17
19 1 1.9868891528942626e+01 1.0144716614634211e+01 2.3328754880286425e+01 23 10 73
471 1 9.4382810026733086e+00 6.7634005869406506e+00 1.6231227046077066e+01 -81 -23 5
491 1 9.8414611236154084e+00 2.6153636583682784e+00 1.3678362373186530e+01 -22 -3 5
305 1 1.8469274994427593e+01 4.3133679799119058e+00 1.7650582363026231e+01 64 53 86
269 1 1.5686758012692902e+01 4.8783150510311959e+00 1.9151260046177640e+01 8 -49 44
253 1 2.2597156989260320e+01 9.7831157598298080e-01 2.2893825061778358e+01 -42 43 30
369 1 2.4729872833150566e+01 8.9937755807535904e+00 2.3672564826868260e+01 -41 105 41
378 1 1.8544919561143693e+01 4.8462142236496177e+00 2.1284974940240701e+01 12 -25 -64
486 1 3.9627615337628224e+00 1.0126555301018879e+01 1.6414886520101732e+01 -8 4 -35
381 1 7.5017930246309934e+00 5.0338528831955873e+00 1.3052932371051943e+01 19 -139 37
420 1 2.0118273480129247e+01 3.7698138778546872e+00 2.3530360492115321e+01 34 -97 104
493 1 8.9429645287315527e+00 1.9062806074338752e+00 2.4018935277054226e+01 -82 137 32
135 1 1.3447254304563591e+01 8.5154888051239137e+00 2.1677766089538075e+01 29 53 -105
144 1 7.2504959243475875e-01 1.1452902939380603e+00 2.1757322773950840e+01 2 31 -18
480 1 1.0631963297416329e+01 8.0762800103516454e+00 2.4779129201710965e+01 43 -30 64
390 1 1.6207157708689515e+01 3.2767670674474281e+00 2.2134842347749078e+01 -4 -19 5
83 1 5.4954774981106711e+00 8.1426956474904166e+00 2.4813370986811321e+01 36 96 39
406 1 1.6984590720008413e+01 6.4461567948265713e-02 1.2504207662480164e+01 61 126 -38
315 1 6.2132197837431224e+00 8.1197565064226329e-01 2.3279423137312925e+01 -89 130 173
203 1 2.4195767632982994e+00 2.1613334901092434e+00 1.9356548789643874e+01 126 -160 40
11 1 1.4627048548602815e+01 2.3578702087842145e+00 1.9980645555621251e+01 24 67 -60
399 1 8.5267969952892937e+00 1.7776854862932636e+00 2.0373797698631449e+01 -47 12 -25
58 1 1.3286382204200708e+01 5.8909380910319182e+00 2.0005143690844342e+01 -13 6 -1
191 1 1.2056941973418523e+01 3.4490071343231419e+00 2.0909592886530618e+01 -11 4 32
413 1 8.7484897131078636e+00 7.3838776772061880e+00 1.3757918392402530e+01 -81 27 -26
56 1 1.2788399114629543e+01 9.7504471629126179e+00 1.3127096157295727e+01 -48 102 83
224 1 6.0164618355796353e+00 1.9012648303786093e+00 1.3817200873961681e+01 137 -156 9
409 1 8.6063445603807942e+00 1.2229209378668388e+01 1.6604141617440320e+01 -48 5 90
415 1 1.4735428372415949e+01 6.1659399451892636e+00 1.2429412822851935e+01 -89 -13 34
255 1 1.8787879336677769e+01 4.0322738972137158e+00 1.3399779845024716e+01 -161 23 131
463 1 1.5036711321660249e+01 1.7074951604641790e+00 2.4047002872807056e+01 -70 12 -83
150 1 1.5799809341742133e+01 1.2102160424117322e+01 1.8579136417209142e+01 63 -4 62
259 1 6.9428340591233084e+00 1.2209603174349699e+00 1.7098779549671875e+01 15 69 14
6 1 4.2099220135041042e+00 2.3122589155996365e+00 2.4283808456280376e+01 109 25 -2
28 1 7.4511184109514639e-01 1.1838208707806603e+01 2.4806714926842204e+01 28 35 0
392 1 1.1509322273547994e+01 2.4801487553354423e+01 1.0294001367954082e+00 62 -7 -50
14 1 1.7135521620213702e+01 1.6221498252487933e+01 9.5834809031547028e+00 108 -16 -37
382 1 2.2151060624739678e+01 1.5228117520889768e+01 4.8087843459641100e+00 54 23 102
324 1 1.3033313641019349e+01 1.9560128896639320e+01 9.3051647692394344e+00 57 -55 72
257 1 1.3220951811091295e+01 2.3016020858970592e+01 5.1174880467562121e+00 -44 35 61
395 1 5.0334458220167588e-01 1.6678323684039100e+01 1.0261108755857965e+01 -101 -9 -58
30 1 1.0959318858742984e+00 2.1416290054949627e+01 4.6713660166461635e-01 -90 100 28
237 1 1.0632526896095229e+01 1.3514381547770057e+01 1.2133298058873038e+01 3 6 -40
15 1 5.4635127541331077e+00 1.2491271977352882e+01 3.0328039932311226e+00 -38 -8 -162
218 1 9.7399019663008417e+00 1.4627406716831555e+01 2.3480564043671266e+00 -102 27 -32
482 1 2.3319394462225404e+01 1.8277748023128986e+01 1.0620351604415355e+01 14 48 46
7 1 1.5891176207217820e+01 1.8193907182059917e+01 6.5715438000649284e-01 74 65 67
72 1 7.3116156818048275e+00 1.4465599437704794e+01 4.9451560686330200e+00 27 69 43
13 1 5.6225952458279975e+00 1.7043076549077817e+01 9.6739163399883505e+00 149 -72 104
416 1 1.1042668132166682e+01 2.2768424338735066e+01 8.8752640298074859e+00 -2 -2 -28
374 1 1.2736115068981178e+00 1.2632537486573666e+01 5.8391989195619933e+00 44 28 -56
484 1 1.8145196591292013e+01 1.9813255425118399e+01 5.6595929399718354e+00 -12 43 72
385 1 9.5667336062646058e+00 1.7848136210110034e+01 2.7143423239241935e+00 38 74 60
113 1 1.9193782578245838e+01 2.0107796462353527e+01 1.5271387815100299e+00 -13 3 109
499 1 1.4524886877234559e+01 2.3042356114596700e+01 1.1778054487694909e+01 73 -5 -103
332 1 7.1394367431290151e+00 1.6998940066725339e+01 3.5946483376524383e+00 42 -65 -52
457 1 1.0127741550980234e+01 2.2046965635723041e+01 1.1431496945725335e+01 -5 -17 164
334 1 1.4015145990159281e+01 1.4060247611371436e+01 5.8332715115305467e+00 24 93 53
504 1 2.4903670207875050e+00 1.9304646234579309e+01 1.7593329423216921e+00 -76 2 26
309 1 2.0917447894819752e+01 1.4828663947962918e+01 9.2044634409294019e+00 54 93 -80
233 1 3.8670165109166135e+00 1.2812254180793966e+01 5.9279791125938113e+00 6 -47 -57
352 1 2.6266558034689296e+00 2.1410611239856820e+01 4.4793142730722124e+00 -31 -58 -104
508 1 1.9824555831790299e+01 1.4895768764134806e+01 6.7592917280407461e+00 29 56 -115
136 1 1.2038730978075854e+01 1.6872418626751490e+01 2.4502427006681810e-01 17 -71 113
112 1 1.1218159267645406e+01 2.1106527202002525e+01 4.3612145042449306e+00 62 53 -49
283 1 4.3721403390134386e+00 2.2404048360235066e+01 6.5809847496381542e+00 48 -5 30
93 1 1.8062030975531769e+01 1.6514970830746876e+01 1.4655607807752695e+00 -8 -53 85
276 1 1.8995434652477833e-01 1.7776628680280908e+01 5.3008018869163038e+00 21 201 -41
458 1 1.8332683536402122e+01 1.8497081064199811e+01 1.0709277456096498e+01 -22 60 5
428 1 7.4393238096080507e+00 2.0276773187105462e+01 7.1800364613995820e+00 25 -73 2
386 1 2.1819085728168773e+01 1.9143176828210919e+01 8.4790041402642924e+00 91 -16 14
263 1 2.0584172084017304e+01 2.2216431616651413e+01 1.2531270250717783e+00 -8 136 -50
370 1 1.8760665816641802e+00 1.6662077111485267e+01 7.6606681083277870e+00 27 92 35
344 1 1.0113710336308229e+01 2.1407498533960670e+01 6.9913338656700281e+00 75 -43 96
320 1 4.1433595545251487e+00 2.4637890222277704e+01 1.0555876794052242e+01 54 18 -37
50 1 8.7656868990567407e+00 2.4269915422902578e+01 1.8750727527233295e+00 -35 28 -99
222 1 1.8223475928727659e+01 2.4051083458054904e+01 7.6763897958802447e+00 -29 7 43
171 1 1.7635637432993974e+01 1.3877806032275577e+01 1.2893177764064190e+00 -60 -10 7
109 1 2.2865900726364124e+01 2.2919609005284109e+01 5.9460724513940759e+00 -105 34 -121
380 1 4.6365859089169179e+00 1.4051627136690895e+01 1.1468956150185063e+01 -24 84 10
396 1 6.8199069849421852e+00 2.1368241583542947e+01 4.1288092087444976e+00 7 -17 0
105 1 3.8349728039778266e+00 1.6341809604436463e+01 2.6619540469833272e+00 3 51 2
452 1 2.3756504197157462e+01 2.0202226290517942e+01 6.8424666459139178e+00 11 10 110
61 1 1.5189052780097535e+01 2.2443683452766813e+01 2.9875535394406918e+00 47 16 80
185 1 1.3660767791927999e+01 2.2215857115271525e+01 9.1545565149111958e+00 -12 27 15
278 1 1.1729083414147177e+00 2.4051278488260024e+01 9.2713362330988769e+00 -170 -106 60
57 1 2.3485535781305423e+01 1.4333751130722566e+01 8.8373307872446762e+00 -55 -30 54
180 1 2.0450631196015273e+01 2.1579019832689703e+01 9.0150331767037866e+00 -24 306 -30
212 1 6.2945602038645125e+00 1.7643575782511022e+01 6.0760915828949766e+00 9 -28 -71
108 1 1.0087045248739630e+00 1.9646784845140154e+01 8.3835816187510748e+00 40 12 63
223 1 4.5694000397025683e+00 2.2758982408963021e+01 3.0340793809114301e+00 145 110 -1
68 1 2.0822182912466076e+01 1.6757021682014731e+01 1.1273473977897874e+01 -17 -31 3
242 1 2.2262699906465144e+01 2.2602688407197320e+01 1.1056960420918331e+01 -6 -24 -68
116 1 6.3947564619285888e+00 1.5005607208652295e+01 1.7502844267766307e+00 -73 -18 60
206 1 2.8514684524685392e+00 1.8491961774980034e+01 4.4466051474540480e+00 -4 -146 33
230 1 9.9516579947032451e+00 1.8445402601502806e+01 1.1958889328054667e+01 -18 -25 -147
157 1 1.4719825956158687e+01 1.3114253303065448e+01 2.8432188171531627e+00 -21 5 65
139 1 1.7601331842018958e+01 1.9988815014149182e+01 8.4337871150790580e+00 -9 21 -20
153 1 1.2899656567077717e+01 1.5562143410174798e+01 8.7471825148527014e+00 -36 -3 47
312 1 2.4849066675359852e+00 2.1433986177822334e+01 1.0473509889560939e+01 1 66 55
478 1 5.2496012324539905e+00 2.0845661088595449e+01 8.9002198356636839e+00 56 9 9
92 1 2.4771081858040283e+01 1.4886844491987587e+01 6.2875151312400375e+00 -69 27 -97
63 1 1.7253635050376914e+01 2.2470537607265896e+01 9.8425380821370130e+00 -14 -58 -113
300 1 1.6867122700094868e+01 1.5629320734537300e+01 6.6428865003888387e+00 -108 -15 -20
182 1 2.0882941459794226e+00 1.4393653139350866e+01 2.0607394430539681e+00 100 -12 60
2 1 8.2063791616701884e+00 1.3666384665786325e+01 7.8893210647030605e+00 15 -4 -100
494 1 8.0088756078356145e+00 1.9727689509614528e+01 6.0842907940666602e-01 -37 154 -73
453 1 1.9951851574984424e+01 2.2075428183988805e+01 6.3103067933384995e+00 115 -31 -41
40 1 1.0301936171743090e+01 1.4589144993335221e+01 9.6502266100681293e+00 -16 17 37
79 1 1.5337427007086445e+01 2.2146850567510754e+01 6.7606331076716950e+00 -130 -36 113
75 1 2.4422026057309751e+01 1.5698655171434220e+01 2.5940563589367809e+00 -54 32 -9
254 1 5.7010589696954268e+00 1.9267691407816898e+01 2.3362349176653328e+00 -14 103 12
285 1 1.1586745537692750e+01 1.8897220931499028e+01 7.0440428284073953e+00 -8 81 -68
505 1 8.9986460664173151e+00 2.1844886542493171e+01 2.7093789205778065e+00 12 -18 -32
307 1 1.1931146752840256e+01 1.8342910585712580e+01 3.9592014051947086e+00 -101 149 2
221 1 2.2326537323324445e+01 1.8048401531912042e+01 4.6090082743587315e+00 -12 30 61
165 1 4.3542190743327275e-01 2.2464268867589126e+01 3.1098601359802691e+00 104 -7 119
432 1 1.5556403210484126e+01 2.2463084036574514e+01 3.2321271340319113e-01 27 -54 46
258 1 2.0073780284819996e+01 1.7670489831783030e+01 6.5775539510086825e+00 136 -23 91
241 1 2.0503657227989102e+01 1.7466976305673342e+01 2.6661364868139975e-01 -2 -133 -40
264 1 1.5358043713732409e+01 1.8478509226530257e+01 7.8612559978288292e+00 -40 15 -26
367 1 2.2767329478449952e+01 1.7824271835764449e+01 1.9087974175916889e+00 -5 21 49
510 1 1.7592455855851895e+01 2.1314056115032102e+01 3.4456234474727485e+00 -37 205 69