LAMMPS (4 Jan 2019)
Reading data file ...
  orthogonal box = (0.023176 0.023176 0.023176) to (24.8118 24.8118 24.8118)
  1 by 2 by 2 MPI processor grid
  reading atoms ...
  512 atoms
  reading velocities ...
  512 velocities
Neighbor list info ...
  update every 1 steps, delay 0 steps, check yes
  max neighbors/atom: 2000, page size: 100000
  master list distance cutoff = 6.3065
  ghost atom cutoff = 6.3065
  1 neighbor lists, perpetual/occasional/extra = 1 0 0
  (1) pair sw, perpetual
      attributes: full, newton on
      pair build: full/nsq
      stencil: none
      bin: none
Setting up Verlet run ...
  Unit style    : real
  Current step  : 0
  Time step     : 5
Per MPI rank memory allocation (min/avg/max) = 2.697 | 2.697 | 2.698 Mbytes
---------------- Step        0 ----- CPU =      0.0000 (sec) ----------------
Time     = 0.000000 Temp     = 300.000000 Press    = 840.214492 
PotEng   = -10.089885 KinEng   = 0.892496 Lx       = 24.788648 
Ly       = 24.788648 Lz       = 24.788648 Density  = 1.005546 
---------------- Step     1000 ----- CPU =      0.9424 (sec) ----------------
Time     = 5000.000000 Temp     = 306.605309 Press    = 477.981005 
PotEng   = -10.086272 KinEng   = 0.912147 Lx       = 24.787784 
Ly       = 24.787784 Lz       = 24.787784 Density  = 1.005651 
---------------- Step     2000 ----- CPU =      1.8911 (sec) ----------------
Time     = 10000.000000 Temp     = 304.190582 Press    = -432.981903 
PotEng   = -9.971991 KinEng   = 0.904963 Lx       = 25.007750 
Ly       = 25.007750 Lz       = 25.007750 Density  = 0.979347 
---------------- Step     3000 ----- CPU =      2.8199 (sec) ----------------
Time     = 15000.000000 Temp     = 318.372397 Press    = 395.733244 
PotEng   = -10.051318 KinEng   = 0.947154 Lx       = 24.831873 
Ly       = 24.831873 Lz       = 24.831873 Density  = 1.000304 
---------------- Step     4000 ----- CPU =      3.7470 (sec) ----------------
Time     = 20000.000000 Temp     = 297.156705 Press    = 471.292919 
PotEng   = -10.091608 KinEng   = 0.884038 Lx       = 24.887529 
Ly       = 24.887529 Lz       = 24.887529 Density  = 0.993608 
---------------- Step     5000 ----- CPU =      4.6579 (sec) ----------------
Time     = 25000.000000 Temp     = 300.308489 Press    = 415.918529 
PotEng   = -10.039898 KinEng   = 0.893414 Lx       = 24.793514 
Ly       = 24.793514 Lz       = 24.793514 Density  = 1.004954 
---------------- Step     6000 ----- CPU =      5.5892 (sec) ----------------
Time     = 30000.000000 Temp     = 307.852220 Press    = -449.417948 
PotEng   = -10.079067 KinEng   = 0.915857 Lx       = 25.008853 
Ly       = 25.008853 Lz       = 25.008853 Density  = 0.979218 
---------------- Step     7000 ----- CPU =      6.5277 (sec) ----------------
Time     = 35000.000000 Temp     = 301.608521 Press    = 408.336368 
PotEng   = -10.089795 KinEng   = 0.897282 Lx       = 24.874076 
Ly       = 24.874076 Lz       = 24.874076 Density  = 0.995221 
---------------- Step     8000 ----- CPU =      7.4577 (sec) ----------------
Time     = 40000.000000 Temp     = 301.380966 Press    = -309.265699 
PotEng   = -10.058221 KinEng   = 0.896605 Lx       = 24.854144 
Ly       = 24.854144 Lz       = 24.854144 Density  = 0.997618 
---------------- Step     9000 ----- CPU =      8.4254 (sec) ----------------
Time     = 45000.000000 Temp     = 292.290796 Press    = 1234.136971 
PotEng   = -10.132480 KinEng   = 0.869562 Lx       = 24.725855 
Ly       = 24.725855 Lz       = 24.725855 Density  = 1.013227 
---------------- Step    10000 ----- CPU =      9.3635 (sec) ----------------
Time     = 50000.000000 Temp     = 286.745998 Press    = -676.763532 
PotEng   = -10.053929 KinEng   = 0.853066 Lx       = 24.883265 
Ly       = 24.883265 Lz       = 24.883265 Density  = 0.994119 
---------------- Step    11000 ----- CPU =     10.2923 (sec) ----------------
Time     = 55000.000000 Temp     = 300.610441 Press    = -407.897539 
PotEng   = -10.038754 KinEng   = 0.894313 Lx       = 24.882798 
Ly       = 24.882798 Lz       = 24.882798 Density  = 0.994175 
---------------- Step    12000 ----- CPU =     11.2269 (sec) ----------------
Time     = 60000.000000 Temp     = 301.154396 Press    = 132.556925 
PotEng   = -10.072936 KinEng   = 0.895931 Lx       = 24.926724 
Ly       = 24.926724 Lz       = 24.926724 Density  = 0.988929 
---------------- Step    13000 ----- CPU =     12.1698 (sec) ----------------
Time     = 65000.000000 Temp     = 291.492860 Press    = -638.484168 
PotEng   = -10.028251 KinEng   = 0.867188 Lx       = 24.847067 
Ly       = 24.847067 Lz       = 24.847067 Density  = 0.998470 
---------------- Step    14000 ----- CPU =     13.1227 (sec) ----------------
Time     = 70000.000000 Temp     = 311.301115 Press    = -1549.465153 
PotEng   = -10.088911 KinEng   = 0.926117 Lx       = 24.834883 
Ly       = 24.834883 Lz       = 24.834883 Density  = 0.999941 
---------------- Step    15000 ----- CPU =     14.0552 (sec) ----------------
Time     = 75000.000000 Temp     = 293.009737 Press    = -300.372961 
PotEng   = -10.071077 KinEng   = 0.871700 Lx       = 24.931970 
Ly       = 24.931970 Lz       = 24.931970 Density  = 0.988304 
---------------- Step    16000 ----- CPU =     14.9621 (sec) ----------------
Time     = 80000.000000 Temp     = 304.478854 Press    = 628.131130 
PotEng   = -10.059496 KinEng   = 0.905821 Lx       = 24.807072 
Ly       = 24.807072 Lz       = 24.807072 Density  = 1.003307 
---------------- Step    17000 ----- CPU =     15.8796 (sec) ----------------
Time     = 85000.000000 Temp     = 292.691673 Press    = 1469.170945 
PotEng   = -10.087295 KinEng   = 0.870754 Lx       = 24.753924 
Ly       = 24.753924 Lz       = 24.753924 Density  = 1.009784 
---------------- Step    18000 ----- CPU =     16.8051 (sec) ----------------
Time     = 90000.000000 Temp     = 300.146017 Press    = -338.026998 
PotEng   = -10.011167 KinEng   = 0.892931 Lx       = 24.869474 
Ly       = 24.869474 Lz       = 24.869474 Density  = 0.995774 
---------------- Step    19000 ----- CPU =     17.7238 (sec) ----------------
Time     = 95000.000000 Temp     = 285.511903 Press    = 896.080581 
PotEng   = -10.024762 KinEng   = 0.849395 Lx       = 24.811468 
Ly       = 24.811468 Lz       = 24.811468 Density  = 1.002774 
---------------- Step    20000 ----- CPU =     18.6788 (sec) ----------------
Time     = 100000.000000 Temp     = 299.545112 Press    = -893.721161 
PotEng   = -10.027124 KinEng   = 0.891143 Lx       = 24.839142 
Ly       = 24.839142 Lz       = 24.839142 Density  = 0.999426 
---------------- Step    21000 ----- CPU =     19.6101 (sec) ----------------
Time     = 105000.000000 Temp     = 323.602748 Press    = -142.954367 
PotEng   = -10.073315 KinEng   = 0.962714 Lx       = 24.847493 
Ly       = 24.847493 Lz       = 24.847493 Density  = 0.998419 
---------------- Step    22000 ----- CPU =     20.5345 (sec) ----------------
Time     = 110000.000000 Temp     = 312.125067 Press    = 267.668335 
PotEng   = -10.140032 KinEng   = 0.928568 Lx       = 24.814385 
Ly       = 24.814385 Lz       = 24.814385 Density  = 1.002421 
---------------- Step    23000 ----- CPU =     21.4582 (sec) ----------------
Time     = 115000.000000 Temp     = 298.365255 Press    = -544.084015 
PotEng   = -10.091529 KinEng   = 0.887633 Lx       = 24.860675 
Ly       = 24.860675 Lz       = 24.860675 Density  = 0.996831 
---------------- Step    24000 ----- CPU =     22.3863 (sec) ----------------
Time     = 120000.000000 Temp     = 303.761548 Press    = -1194.363964 
PotEng   = -10.091051 KinEng   = 0.903687 Lx       = 24.868799 
Ly       = 24.868799 Lz       = 24.868799 Density  = 0.995855 
---------------- Step    25000 ----- CPU =     23.3171 (sec) ----------------
Time     = 125000.000000 Temp     = 313.679346 Press    = 131.705782 
PotEng   = -10.056081 KinEng   = 0.933192 Lx       = 24.849439 
Ly       = 24.849439 Lz       = 24.849439 Density  = 0.998184 
---------------- Step    26000 ----- CPU =     24.2761 (sec) ----------------
Time     = 130000.000000 Temp     = 299.653537 Press    = -569.706179 
PotEng   = -10.010815 KinEng   = 0.891466 Lx       = 24.814011 
Ly       = 24.814011 Lz       = 24.814011 Density  = 1.002466 
---------------- Step    27000 ----- CPU =     25.2060 (sec) ----------------
Time     = 135000.000000 Temp     = 292.541822 Press    = -320.339111 
PotEng   = -10.108472 KinEng   = 0.870308 Lx       = 24.809030 
Ly       = 24.809030 Lz       = 24.809030 Density  = 1.003070 
---------------- Step    28000 ----- CPU =     26.1177 (sec) ----------------
Time     = 140000.000000 Temp     = 325.581257 Press    = 6.161537 
PotEng   = -10.108420 KinEng   = 0.968600 Lx       = 24.794191 
Ly       = 24.794191 Lz       = 24.794191 Density  = 1.004872 
---------------- Step    29000 ----- CPU =     27.0634 (sec) ----------------
Time     = 145000.000000 Temp     = 284.949923 Press    = -775.849772 
PotEng   = -10.085610 KinEng   = 0.847723 Lx       = 24.875373 
Ly       = 24.875373 Lz       = 24.875373 Density  = 0.995066 
---------------- Step    30000 ----- CPU =     27.9912 (sec) ----------------
Time     = 150000.000000 Temp     = 317.318356 Press    = -467.046273 
PotEng   = -10.058934 KinEng   = 0.944018 Lx       = 24.838846 
Ly       = 24.838846 Lz       = 24.838846 Density  = 0.999462 
---------------- Step    31000 ----- CPU =     28.9209 (sec) ----------------
Time     = 155000.000000 Temp     = 293.004486 Press    = 441.286273 
PotEng   = -10.030122 KinEng   = 0.871685 Lx       = 24.841805 
Ly       = 24.841805 Lz       = 24.841805 Density  = 0.999105 
---------------- Step    32000 ----- CPU =     29.8599 (sec) ----------------
Time     = 160000.000000 Temp     = 305.320625 Press    = 1037.941463 
PotEng   = -10.066387 KinEng   = 0.908325 Lx       = 24.819269 
Ly       = 24.819269 Lz       = 24.819269 Density  = 1.001829 
---------------- Step    33000 ----- CPU =     30.7654 (sec) ----------------
Time     = 165000.000000 Temp     = 301.070070 Press    = 1620.223489 
PotEng   = -9.990774 KinEng   = 0.895680 Lx       = 24.794590 
Ly       = 24.794590 Lz       = 24.794590 Density  = 1.004823 
---------------- Step    34000 ----- CPU =     31.6736 (sec) ----------------
Time     = 170000.000000 Temp     = 279.319386 Press    = 604.423733 
PotEng   = -10.069852 KinEng   = 0.830972 Lx       = 24.840195 
Ly       = 24.840195 Lz       = 24.840195 Density  = 0.999299 
---------------- Step    35000 ----- CPU =     32.6318 (sec) ----------------
Time     = 175000.000000 Temp     = 279.371999 Press    = 298.624844 
PotEng   = -10.086573 KinEng   = 0.831128 Lx       = 24.760546 
Ly       = 24.760546 Lz       = 24.760546 Density  = 1.008974 
---------------- Step    36000 ----- CPU =     33.5648 (sec) ----------------
Time     = 180000.000000 Temp     = 294.405984 Press    = -641.338153 
PotEng   = -10.062540 KinEng   = 0.875854 Lx       = 24.830955 
Ly       = 24.830955 Lz       = 24.830955 Density  = 1.000415 
---------------- Step    37000 ----- CPU =     34.4981 (sec) ----------------
Time     = 185000.000000 Temp     = 266.478889 Press    = -305.636534 
PotEng   = -10.034845 KinEng   = 0.792772 Lx       = 24.825638 
Ly       = 24.825638 Lz       = 24.825638 Density  = 1.001058 
---------------- Step    38000 ----- CPU =     35.4524 (sec) ----------------
Time     = 190000.000000 Temp     = 311.123851 Press    = -970.050371 
PotEng   = -10.111320 KinEng   = 0.925590 Lx       = 24.882102 
Ly       = 24.882102 Lz       = 24.882102 Density  = 0.994259 
---------------- Step    39000 ----- CPU =     36.3906 (sec) ----------------
Time     = 195000.000000 Temp     = 285.556396 Press    = -1442.187514 
PotEng   = -9.983726 KinEng   = 0.849527 Lx       = 24.951387 
Ly       = 24.951387 Lz       = 24.951387 Density  = 0.985999 
---------------- Step    40000 ----- CPU =     37.3070 (sec) ----------------
Time     = 200000.000000 Temp     = 298.541505 Press    = 919.224397 
PotEng   = -10.088253 KinEng   = 0.888157 Lx       = 24.773833 
Ly       = 24.773833 Lz       = 24.773833 Density  = 1.007351 
---------------- Step    41000 ----- CPU =     38.2308 (sec) ----------------
Time     = 205000.000000 Temp     = 288.347656 Press    = 311.965456 
PotEng   = -10.087222 KinEng   = 0.857831 Lx       = 24.846007 
Ly       = 24.846007 Lz       = 24.846007 Density  = 0.998598 
---------------- Step    42000 ----- CPU =     39.1957 (sec) ----------------
Time     = 210000.000000 Temp     = 316.733327 Press    = 2133.160826 
PotEng   = -10.090397 KinEng   = 0.942278 Lx       = 24.708477 
Ly       = 24.708477 Lz       = 24.708477 Density  = 1.015366 
---------------- Step    43000 ----- CPU =     40.1343 (sec) ----------------
Time     = 215000.000000 Temp     = 299.865840 Press    = -1066.865304 
PotEng   = -9.994781 KinEng   = 0.892097 Lx       = 24.916285 
Ly       = 24.916285 Lz       = 24.916285 Density  = 0.990172 
---------------- Step    44000 ----- CPU =     41.0730 (sec) ----------------
Time     = 220000.000000 Temp     = 294.009416 Press    = -427.019349 
PotEng   = -10.093385 KinEng   = 0.874675 Lx       = 25.000160 
Ly       = 25.000160 Lz       = 25.000160 Density  = 0.980239 
---------------- Step    45000 ----- CPU =     42.0188 (sec) ----------------
Time     = 225000.000000 Temp     = 314.863977 Press    = 1034.559802 
PotEng   = -10.020373 KinEng   = 0.936717 Lx       = 24.761255 
Ly       = 24.761255 Lz       = 24.761255 Density  = 1.008887 
---------------- Step    46000 ----- CPU =     42.9546 (sec) ----------------
Time     = 230000.000000 Temp     = 299.326454 Press    = -766.004619 
PotEng   = -10.090580 KinEng   = 0.890493 Lx       = 24.834831 
Ly       = 24.834831 Lz       = 24.834831 Density  = 0.999947 
---------------- Step    47000 ----- CPU =     43.8868 (sec) ----------------
Time     = 235000.000000 Temp     = 285.914048 Press    = 1513.574569 
PotEng   = -10.108990 KinEng   = 0.850591 Lx       = 24.808028 
Ly       = 24.808028 Lz       = 24.808028 Density  = 1.003191 
---------------- Step    48000 ----- CPU =     44.8327 (sec) ----------------
Time     = 240000.000000 Temp     = 288.020630 Press    = -344.018243 
PotEng   = -10.031783 KinEng   = 0.856858 Lx       = 24.848394 
Ly       = 24.848394 Lz       = 24.848394 Density  = 0.998310 
---------------- Step    49000 ----- CPU =     45.7716 (sec) ----------------
Time     = 245000.000000 Temp     = 300.743722 Press    = -1271.315790 
PotEng   = -10.132229 KinEng   = 0.894709 Lx       = 24.929880 
Ly       = 24.929880 Lz       = 24.929880 Density  = 0.988553 
---------------- Step    50000 ----- CPU =     46.6976 (sec) ----------------
Time     = 250000.000000 Temp     = 317.219544 Press    = -296.553636 
PotEng   = -10.107046 KinEng   = 0.943724 Lx       = 24.906311 
Ly       = 24.906311 Lz       = 24.906311 Density  = 0.991362 
---------------- Step    51000 ----- CPU =     47.6215 (sec) ----------------
Time     = 255000.000000 Temp     = 315.180377 Press    = -64.296180 
PotEng   = -10.032539 KinEng   = 0.937658 Lx       = 24.918534 
Ly       = 24.918534 Lz       = 24.918534 Density  = 0.989904 
---------------- Step    52000 ----- CPU =     48.5562 (sec) ----------------
Time     = 260000.000000 Temp     = 295.556228 Press    = 1128.777702 
PotEng   = -10.058453 KinEng   = 0.879276 Lx       = 24.773112 
Ly       = 24.773112 Lz       = 24.773112 Density  = 1.007439 
---------------- Step    53000 ----- CPU =     49.4800 (sec) ----------------
Time     = 265000.000000 Temp     = 287.455682 Press    = -1003.528206 
PotEng   = -10.058679 KinEng   = 0.855177 Lx       = 24.852306 
Ly       = 24.852306 Lz       = 24.852306 Density  = 0.997839 
---------------- Step    54000 ----- CPU =     50.4155 (sec) ----------------
Time     = 270000.000000 Temp     = 297.580285 Press    = -634.105467 
PotEng   = -10.072383 KinEng   = 0.885298 Lx       = 24.946355 
Ly       = 24.946355 Lz       = 24.946355 Density  = 0.986596 
---------------- Step    55000 ----- CPU =     51.3451 (sec) ----------------
Time     = 275000.000000 Temp     = 299.066252 Press    = 694.716503 
PotEng   = -10.135154 KinEng   = 0.889719 Lx       = 24.825805 
Ly       = 24.825805 Lz       = 24.825805 Density  = 1.001038 
---------------- Step    56000 ----- CPU =     52.2811 (sec) ----------------
Time     = 280000.000000 Temp     = 308.458748 Press    = -113.658650 
PotEng   = -10.007987 KinEng   = 0.917661 Lx       = 24.846895 
Ly       = 24.846895 Lz       = 24.846895 Density  = 0.998491 
---------------- Step    57000 ----- CPU =     53.1956 (sec) ----------------
Time     = 285000.000000 Temp     = 306.139000 Press    = -175.756643 
PotEng   = -10.019679 KinEng   = 0.910760 Lx       = 24.820815 
Ly       = 24.820815 Lz       = 24.820815 Density  = 1.001642 
---------------- Step    58000 ----- CPU =     54.1473 (sec) ----------------
Time     = 290000.000000 Temp     = 280.970550 Press    = 37.969564 
PotEng   = -9.983453 KinEng   = 0.835884 Lx       = 24.919260 
Ly       = 24.919260 Lz       = 24.919260 Density  = 0.989817 
---------------- Step    59000 ----- CPU =     55.1023 (sec) ----------------
Time     = 295000.000000 Temp     = 307.463699 Press    = -802.992302 
PotEng   = -10.079160 KinEng   = 0.914701 Lx       = 24.892746 
Ly       = 24.892746 Lz       = 24.892746 Density  = 0.992984 
---------------- Step    60000 ----- CPU =     56.0355 (sec) ----------------
Time     = 300000.000000 Temp     = 290.532144 Press    = -433.109152 
PotEng   = -10.115948 KinEng   = 0.864330 Lx       = 24.915741 
Ly       = 24.915741 Lz       = 24.915741 Density  = 0.990237 
---------------- Step    61000 ----- CPU =     56.9707 (sec) ----------------
Time     = 305000.000000 Temp     = 301.034536 Press    = -376.827750 
PotEng   = -10.107009 KinEng   = 0.895574 Lx       = 24.949099 
Ly       = 24.949099 Lz       = 24.949099 Density  = 0.986270 
---------------- Step    62000 ----- CPU =     57.9034 (sec) ----------------
Time     = 310000.000000 Temp     = 317.703644 Press    = -92.956279 
PotEng   = -10.048058 KinEng   = 0.945165 Lx       = 24.811989 
Ly       = 24.811989 Lz       = 24.811989 Density  = 1.002711 
---------------- Step    63000 ----- CPU =     58.8547 (sec) ----------------
Time     = 315000.000000 Temp     = 313.438077 Press    = -340.556013 
PotEng   = -10.009842 KinEng   = 0.932475 Lx       = 24.927774 
Ly       = 24.927774 Lz       = 24.927774 Density  = 0.988804 
---------------- Step    64000 ----- CPU =     59.7867 (sec) ----------------
Time     = 320000.000000 Temp     = 299.823214 Press    = -632.396990 
PotEng   = -10.123822 KinEng   = 0.891971 Lx       = 24.889471 
Ly       = 24.889471 Lz       = 24.889471 Density  = 0.993376 
---------------- Step    65000 ----- CPU =     60.7129 (sec) ----------------
Time     = 325000.000000 Temp     = 299.519929 Press    = 236.255428 
PotEng   = -10.116851 KinEng   = 0.891068 Lx       = 24.841209 
Ly       = 24.841209 Lz       = 24.841209 Density  = 0.999177 
---------------- Step    66000 ----- CPU =     61.6301 (sec) ----------------
Time     = 330000.000000 Temp     = 303.793458 Press    = -62.356917 
PotEng   = -10.111678 KinEng   = 0.903782 Lx       = 24.924860 
Ly       = 24.924860 Lz       = 24.924860 Density  = 0.989150 
---------------- Step    67000 ----- CPU =     62.5794 (sec) ----------------
Time     = 335000.000000 Temp     = 306.859608 Press    = -143.835727 
PotEng   = -10.049336 KinEng   = 0.912904 Lx       = 24.909595 
Ly       = 24.909595 Lz       = 24.909595 Density  = 0.990970 
---------------- Step    68000 ----- CPU =     63.4957 (sec) ----------------
Time     = 340000.000000 Temp     = 301.340831 Press    = -532.323083 
PotEng   = -9.979284 KinEng   = 0.896485 Lx       = 24.935756 
Ly       = 24.935756 Lz       = 24.935756 Density  = 0.987854 
---------------- Step    69000 ----- CPU =     64.4091 (sec) ----------------
Time     = 345000.000000 Temp     = 303.045324 Press    = 88.269985 
PotEng   = -10.089482 KinEng   = 0.901556 Lx       = 24.953312 
Ly       = 24.953312 Lz       = 24.953312 Density  = 0.985771 
---------------- Step    70000 ----- CPU =     65.3334 (sec) ----------------
Time     = 350000.000000 Temp     = 278.586551 Press    = 798.399018 
PotEng   = -10.068802 KinEng   = 0.828792 Lx       = 24.846087 
Ly       = 24.846087 Lz       = 24.846087 Density  = 0.998588 
---------------- Step    71000 ----- CPU =     66.2463 (sec) ----------------
Time     = 355000.000000 Temp     = 315.173343 Press    = -32.935320 
PotEng   = -10.075814 KinEng   = 0.937637 Lx       = 24.930360 
Ly       = 24.930360 Lz       = 24.930360 Density  = 0.988496 
---------------- Step    72000 ----- CPU =     67.1725 (sec) ----------------
Time     = 360000.000000 Temp     = 303.868198 Press    = 234.700797 
PotEng   = -10.035518 KinEng   = 0.904004 Lx       = 24.740126 
Ly       = 24.740126 Lz       = 24.740126 Density  = 1.011474 
---------------- Step    73000 ----- CPU =     68.1117 (sec) ----------------
Time     = 365000.000000 Temp     = 284.464753 Press    = 593.922450 
PotEng   = -10.104965 KinEng   = 0.846279 Lx       = 24.799533 
Ly       = 24.799533 Lz       = 24.799533 Density  = 1.004223 
---------------- Step    74000 ----- CPU =     69.0480 (sec) ----------------
Time     = 370000.000000 Temp     = 306.737590 Press    = -117.232909 
PotEng   = -10.050247 KinEng   = 0.912541 Lx       = 24.895240 
Ly       = 24.895240 Lz       = 24.895240 Density  = 0.992685 
---------------- Step    75000 ----- CPU =     69.9703 (sec) ----------------
Time     = 375000.000000 Temp     = 291.875517 Press    = -293.795196 
PotEng   = -10.055061 KinEng   = 0.868326 Lx       = 24.843259 
Ly       = 24.843259 Lz       = 24.843259 Density  = 0.998929 
---------------- Step    76000 ----- CPU =     70.9083 (sec) ----------------
Time     = 380000.000000 Temp     = 291.590188 Press    = 518.169808 
PotEng   = -10.055366 KinEng   = 0.867477 Lx       = 24.824523 
Ly       = 24.824523 Lz       = 24.824523 Density  = 1.001193 
---------------- Step    77000 ----- CPU =     71.8239 (sec) ----------------
Time     = 385000.000000 Temp     = 307.384688 Press    = -784.295907 
PotEng   = -10.082547 KinEng   = 0.914466 Lx       = 24.921209 
Ly       = 24.921209 Lz       = 24.921209 Density  = 0.989585 
---------------- Step    78000 ----- CPU =     72.7485 (sec) ----------------
Time     = 390000.000000 Temp     = 300.844740 Press    = -1115.191579 
PotEng   = -10.049783 KinEng   = 0.895010 Lx       = 24.926648 
Ly       = 24.926648 Lz       = 24.926648 Density  = 0.988938 
---------------- Step    79000 ----- CPU =     73.6852 (sec) ----------------
Time     = 395000.000000 Temp     = 304.734612 Press    = -326.070847 
PotEng   = -10.123178 KinEng   = 0.906582 Lx       = 24.818519 
Ly       = 24.818519 Lz       = 24.818519 Density  = 1.001920 
---------------- Step    80000 ----- CPU =     74.6112 (sec) ----------------
Time     = 400000.000000 Temp     = 295.970703 Press    = 865.634704 
PotEng   = -10.052244 KinEng   = 0.880509 Lx       = 24.882237 
Ly       = 24.882237 Lz       = 24.882237 Density  = 0.994242 
---------------- Step    81000 ----- CPU =     75.5015 (sec) ----------------
Time     = 405000.000000 Temp     = 318.778372 Press    = -256.764887 
PotEng   = -10.078682 KinEng   = 0.948362 Lx       = 24.974937 
Ly       = 24.974937 Lz       = 24.974937 Density  = 0.983212 
---------------- Step    82000 ----- CPU =     76.3988 (sec) ----------------
Time     = 410000.000000 Temp     = 294.831647 Press    = -362.929063 
PotEng   = -10.134814 KinEng   = 0.877121 Lx       = 24.918259 
Ly       = 24.918259 Lz       = 24.918259 Density  = 0.989937 
---------------- Step    83000 ----- CPU =     77.3274 (sec) ----------------
Time     = 415000.000000 Temp     = 293.754813 Press    = 298.317497 
PotEng   = -10.057273 KinEng   = 0.873917 Lx       = 24.906919 
Ly       = 24.906919 Lz       = 24.906919 Density  = 0.991290 
---------------- Step    84000 ----- CPU =     78.2632 (sec) ----------------
Time     = 420000.000000 Temp     = 307.179024 Press    = 281.473172 
PotEng   = -10.014733 KinEng   = 0.913854 Lx       = 24.908779 
Ly       = 24.908779 Lz       = 24.908779 Density  = 0.991067 
---------------- Step    85000 ----- CPU =     79.1990 (sec) ----------------
Time     = 425000.000000 Temp     = 309.402006 Press    = 113.864537 
PotEng   = -10.050571 KinEng   = 0.920467 Lx       = 24.781829 
Ly       = 24.781829 Lz       = 24.781829 Density  = 1.006376 
---------------- Step    86000 ----- CPU =     80.1363 (sec) ----------------
Time     = 430000.000000 Temp     = 301.204226 Press    = 20.296323 
PotEng   = -10.051008 KinEng   = 0.896079 Lx       = 24.840812 
Ly       = 24.840812 Lz       = 24.840812 Density  = 0.999225 
---------------- Step    87000 ----- CPU =     81.0853 (sec) ----------------
Time     = 435000.000000 Temp     = 301.167407 Press    = 454.239220 
PotEng   = -10.115423 KinEng   = 0.895969 Lx       = 24.788851 
Ly       = 24.788851 Lz       = 24.788851 Density  = 1.005521 
---------------- Step    88000 ----- CPU =     82.0121 (sec) ----------------
Time     = 440000.000000 Temp     = 293.500771 Press    = -896.329400 
PotEng   = -10.057482 KinEng   = 0.873161 Lx       = 24.907683 
Ly       = 24.907683 Lz       = 24.907683 Density  = 0.991198 
---------------- Step    89000 ----- CPU =     82.9584 (sec) ----------------
Time     = 445000.000000 Temp     = 307.187251 Press    = 1339.776207 
PotEng   = -10.041889 KinEng   = 0.913878 Lx       = 24.794863 
Ly       = 24.794863 Lz       = 24.794863 Density  = 1.004790 
---------------- Step    90000 ----- CPU =     83.8935 (sec) ----------------
Time     = 450000.000000 Temp     = 298.482519 Press    = 652.065862 
PotEng   = -10.107015 KinEng   = 0.887982 Lx       = 24.854606 
Ly       = 24.854606 Lz       = 24.854606 Density  = 0.997562 
---------------- Step    91000 ----- CPU =     84.8247 (sec) ----------------
Time     = 455000.000000 Temp     = 294.057316 Press    = 874.122780 
PotEng   = -10.066251 KinEng   = 0.874817 Lx       = 24.754317 
Ly       = 24.754317 Lz       = 24.754317 Density  = 1.009736 
---------------- Step    92000 ----- CPU =     85.7739 (sec) ----------------
Time     = 460000.000000 Temp     = 314.692693 Press    = -959.372858 
PotEng   = -10.057246 KinEng   = 0.936207 Lx       = 24.838696 
Ly       = 24.838696 Lz       = 24.838696 Density  = 0.999480 
---------------- Step    93000 ----- CPU =     86.7112 (sec) ----------------
Time     = 465000.000000 Temp     = 300.011958 Press    = 636.204767 
PotEng   = -10.080363 KinEng   = 0.892532 Lx       = 24.767186 
Ly       = 24.767186 Lz       = 24.767186 Density  = 1.008162 
---------------- Step    94000 ----- CPU =     87.6516 (sec) ----------------
Time     = 470000.000000 Temp     = 293.472392 Press    = -967.574973 
PotEng   = -10.161564 KinEng   = 0.873077 Lx       = 24.835001 
Ly       = 24.835001 Lz       = 24.835001 Density  = 0.999926 
---------------- Step    95000 ----- CPU =     88.6129 (sec) ----------------
Time     = 475000.000000 Temp     = 302.848801 Press    = -663.622907 
PotEng   = -10.060176 KinEng   = 0.900972 Lx       = 24.855787 
Ly       = 24.855787 Lz       = 24.855787 Density  = 0.997420 
---------------- Step    96000 ----- CPU =     89.5549 (sec) ----------------
Time     = 480000.000000 Temp     = 307.652397 Press    = -1157.239813 
PotEng   = -10.058011 KinEng   = 0.915262 Lx       = 24.852428 
Ly       = 24.852428 Lz       = 24.852428 Density  = 0.997824 
---------------- Step    97000 ----- CPU =     90.4773 (sec) ----------------
Time     = 485000.000000 Temp     = 296.551082 Press    = 240.568573 
PotEng   = -9.985222 KinEng   = 0.882236 Lx       = 24.884821 
Ly       = 24.884821 Lz       = 24.884821 Density  = 0.993933 
---------------- Step    98000 ----- CPU =     91.3981 (sec) ----------------
Time     = 490000.000000 Temp     = 313.092795 Press    = 223.557629 
PotEng   = -10.042188 KinEng   = 0.931447 Lx       = 24.783192 
Ly       = 24.783192 Lz       = 24.783192 Density  = 1.006210 
---------------- Step    99000 ----- CPU =     92.3332 (sec) ----------------
Time     = 495000.000000 Temp     = 301.421164 Press    = -526.316400 
PotEng   = -10.111658 KinEng   = 0.896724 Lx       = 24.896563 
Ly       = 24.896563 Lz       = 24.896563 Density  = 0.992527 
---------------- Step   100000 ----- CPU =     93.2237 (sec) ----------------
Time     = 500000.000000 Temp     = 291.197604 Press    = -94.226837 
PotEng   = -9.992458 KinEng   = 0.866309 Lx       = 24.954127 
Ly       = 24.954127 Lz       = 24.954127 Density  = 0.985674 
---------------- Step   101000 ----- CPU =     94.1588 (sec) ----------------
Time     = 505000.000000 Temp     = 315.477574 Press    = -539.060083 
PotEng   = -10.012197 KinEng   = 0.938542 Lx       = 24.919375 
Ly       = 24.919375 Lz       = 24.919375 Density  = 0.989804 
---------------- Step   102000 ----- CPU =     95.0943 (sec) ----------------
Time     = 510000.000000 Temp     = 301.139009 Press    = 420.422460 
PotEng   = -10.001543 KinEng   = 0.895885 Lx       = 24.804852 
Ly       = 24.804852 Lz       = 24.804852 Density  = 1.003577 
---------------- Step   103000 ----- CPU =     96.0280 (sec) ----------------
Time     = 515000.000000 Temp     = 292.176312 Press    = -128.256244 
PotEng   = -10.028258 KinEng   = 0.869221 Lx       = 24.813128 
Ly       = 24.813128 Lz       = 24.813128 Density  = 1.002573 
---------------- Step   104000 ----- CPU =     96.9608 (sec) ----------------
Time     = 520000.000000 Temp     = 294.884094 Press    = 194.874079 
PotEng   = -10.113541 KinEng   = 0.877277 Lx       = 24.866258 
Ly       = 24.866258 Lz       = 24.866258 Density  = 0.996160 
---------------- Step   105000 ----- CPU =     97.8925 (sec) ----------------
Time     = 525000.000000 Temp     = 313.566770 Press    = 304.648252 
PotEng   = -10.022602 KinEng   = 0.932857 Lx       = 24.811365 
Ly       = 24.811365 Lz       = 24.811365 Density  = 1.002787 
---------------- Step   106000 ----- CPU =     98.8405 (sec) ----------------
Time     = 530000.000000 Temp     = 296.126512 Press    = -999.488325 
PotEng   = -10.024553 KinEng   = 0.880973 Lx       = 24.890382 
Ly       = 24.890382 Lz       = 24.890382 Density  = 0.993267 
---------------- Step   107000 ----- CPU =     99.7685 (sec) ----------------
Time     = 535000.000000 Temp     = 293.342505 Press    = 353.100254 
PotEng   = -10.099325 KinEng   = 0.872690 Lx       = 24.805567 
Ly       = 24.805567 Lz       = 24.805567 Density  = 1.003490 
---------------- Step   108000 ----- CPU =    100.7091 (sec) ----------------
Time     = 540000.000000 Temp     = 320.644371 Press    = -117.197575 
PotEng   = -10.071725 KinEng   = 0.953913 Lx       = 24.872089 
Ly       = 24.872089 Lz       = 24.872089 Density  = 0.995460 
---------------- Step   109000 ----- CPU =    101.6299 (sec) ----------------
Time     = 545000.000000 Temp     = 293.590259 Press    = -143.929896 
PotEng   = -10.065795 KinEng   = 0.873428 Lx       = 24.792437 
Ly       = 24.792437 Lz       = 24.792437 Density  = 1.005085 
---------------- Step   110000 ----- CPU =    102.5433 (sec) ----------------
Time     = 550000.000000 Temp     = 296.285254 Press    = -227.657649 
PotEng   = -10.126132 KinEng   = 0.881445 Lx       = 24.832989 
Ly       = 24.832989 Lz       = 24.832989 Density  = 1.000169 
---------------- Step   111000 ----- CPU =    103.4695 (sec) ----------------
Time     = 555000.000000 Temp     = 305.709635 Press    = 801.142196 
PotEng   = -10.101144 KinEng   = 0.909483 Lx       = 24.801034 
Ly       = 24.801034 Lz       = 24.801034 Density  = 1.004040 
---------------- Step   112000 ----- CPU =    104.4434 (sec) ----------------
Time     = 560000.000000 Temp     = 302.306042 Press    = 1141.236935 
PotEng   = -10.101219 KinEng   = 0.899357 Lx       = 24.739546 
Ly       = 24.739546 Lz       = 24.739546 Density  = 1.011545 
---------------- Step   113000 ----- CPU =    105.3980 (sec) ----------------
Time     = 565000.000000 Temp     = 301.012512 Press    = 535.121703 
PotEng   = -10.040735 KinEng   = 0.895509 Lx       = 24.875378 
Ly       = 24.875378 Lz       = 24.875378 Density  = 0.995065 
---------------- Step   114000 ----- CPU =    106.3204 (sec) ----------------
Time     = 570000.000000 Temp     = 287.946703 Press    = -177.238410 
PotEng   = -10.063816 KinEng   = 0.856638 Lx       = 24.847511 
Ly       = 24.847511 Lz       = 24.847511 Density  = 0.998417 
---------------- Step   115000 ----- CPU =    107.2793 (sec) ----------------
Time     = 575000.000000 Temp     = 275.126970 Press    = -88.619499 
PotEng   = -10.087969 KinEng   = 0.818499 Lx       = 24.798042 
Ly       = 24.798042 Lz       = 24.798042 Density  = 1.004404 
---------------- Step   116000 ----- CPU =    108.2048 (sec) ----------------
Time     = 580000.000000 Temp     = 279.393354 Press    = 475.493788 
PotEng   = -10.084392 KinEng   = 0.831192 Lx       = 24.917555 
Ly       = 24.917555 Lz       = 24.917555 Density  = 0.990021 
---------------- Step   117000 ----- CPU =    109.1657 (sec) ----------------
Time     = 585000.000000 Temp     = 305.614772 Press    = -1574.206109 
PotEng   = -10.133354 KinEng   = 0.909200 Lx       = 24.887806 
Ly       = 24.887806 Lz       = 24.887806 Density  = 0.993575 
---------------- Step   118000 ----- CPU =    110.1011 (sec) ----------------
Time     = 590000.000000 Temp     = 300.436388 Press    = -1193.917236 
PotEng   = -10.085631 KinEng   = 0.893795 Lx       = 24.982233 
Ly       = 24.982233 Lz       = 24.982233 Density  = 0.982351 
---------------- Step   119000 ----- CPU =    111.0179 (sec) ----------------
Time     = 595000.000000 Temp     = 300.005081 Press    = -169.520712 
PotEng   = -10.071311 KinEng   = 0.892512 Lx       = 24.924747 
Ly       = 24.924747 Lz       = 24.924747 Density  = 0.989164 
---------------- Step   120000 ----- CPU =    111.9546 (sec) ----------------
Time     = 600000.000000 Temp     = 293.198952 Press    = -213.917896 
PotEng   = -10.000096 KinEng   = 0.872263 Lx       = 24.861754 
Ly       = 24.861754 Lz       = 24.861754 Density  = 0.996702 
---------------- Step   121000 ----- CPU =    112.8829 (sec) ----------------
Time     = 605000.000000 Temp     = 307.590924 Press    = 476.697527 
PotEng   = -10.115412 KinEng   = 0.915079 Lx       = 24.820542 
Ly       = 24.820542 Lz       = 24.820542 Density  = 1.001675 
---------------- Step   122000 ----- CPU =    113.8014 (sec) ----------------
Time     = 610000.000000 Temp     = 308.958257 Press    = 1416.731936 
PotEng   = -10.086825 KinEng   = 0.919147 Lx       = 24.805672 
Ly       = 24.805672 Lz       = 24.805672 Density  = 1.003477 
---------------- Step   123000 ----- CPU =    114.7456 (sec) ----------------
Time     = 615000.000000 Temp     = 294.721207 Press    = 924.535809 
PotEng   = -10.068124 KinEng   = 0.876792 Lx       = 24.824815 
Ly       = 24.824815 Lz       = 24.824815 Density  = 1.001158 
---------------- Step   124000 ----- CPU =    115.6600 (sec) ----------------
Time     = 620000.000000 Temp     = 294.837959 Press    = 24.689464 
PotEng   = -10.052109 KinEng   = 0.877139 Lx       = 24.902499 
Ly       = 24.902499 Lz       = 24.902499 Density  = 0.991817 
---------------- Step   125000 ----- CPU =    116.5996 (sec) ----------------
Time     = 625000.000000 Temp     = 291.292140 Press    = -517.300943 
PotEng   = -10.011094 KinEng   = 0.866591 Lx       = 24.883573 
Ly       = 24.883573 Lz       = 24.883573 Density  = 0.994082 
---------------- Step   126000 ----- CPU =    117.5266 (sec) ----------------
Time     = 630000.000000 Temp     = 291.985418 Press    = -165.231694 
PotEng   = -10.041356 KinEng   = 0.868653 Lx       = 24.905350 
Ly       = 24.905350 Lz       = 24.905350 Density  = 0.991477 
---------------- Step   127000 ----- CPU =    118.4659 (sec) ----------------
Time     = 635000.000000 Temp     = 293.398162 Press    = -892.162929 
PotEng   = -9.975833 KinEng   = 0.872856 Lx       = 24.904079 
Ly       = 24.904079 Lz       = 24.904079 Density  = 0.991629 
---------------- Step   128000 ----- CPU =    119.3889 (sec) ----------------
Time     = 640000.000000 Temp     = 293.796536 Press    = 160.888900 
PotEng   = -10.079209 KinEng   = 0.874041 Lx       = 24.950038 
Ly       = 24.950038 Lz       = 24.950038 Density  = 0.986159 
---------------- Step   129000 ----- CPU =    120.3183 (sec) ----------------
Time     = 645000.000000 Temp     = 307.686804 Press    = -173.304451 
PotEng   = -10.039281 KinEng   = 0.915365 Lx       = 24.838129 
Ly       = 24.838129 Lz       = 24.838129 Density  = 0.999549 
---------------- Step   130000 ----- CPU =    121.2272 (sec) ----------------
Time     = 650000.000000 Temp     = 285.988680 Press    = 1295.992352 
PotEng   = -9.989781 KinEng   = 0.850813 Lx       = 24.870177 
Ly       = 24.870177 Lz       = 24.870177 Density  = 0.995689 
---------------- Step   131000 ----- CPU =    122.1234 (sec) ----------------
Time     = 655000.000000 Temp     = 293.828378 Press    = 1334.774203 
PotEng   = -10.066653 KinEng   = 0.874136 Lx       = 24.745202 
Ly       = 24.745202 Lz       = 24.745202 Density  = 1.010852 
---------------- Step   132000 ----- CPU =    123.0628 (sec) ----------------
Time     = 660000.000000 Temp     = 303.730991 Press    = -604.675662 
PotEng   = -10.075982 KinEng   = 0.903596 Lx       = 24.893680 
Ly       = 24.893680 Lz       = 24.893680 Density  = 0.992872 
---------------- Step   133000 ----- CPU =    124.0165 (sec) ----------------
Time     = 665000.000000 Temp     = 296.169366 Press    = 508.704819 
PotEng   = -10.046692 KinEng   = 0.881100 Lx       = 24.822147 
Ly       = 24.822147 Lz       = 24.822147 Density  = 1.001481 
---------------- Step   134000 ----- CPU =    124.9402 (sec) ----------------
Time     = 670000.000000 Temp     = 293.847648 Press    = -1045.583241 
PotEng   = -10.029270 KinEng   = 0.874193 Lx       = 24.943940 
Ly       = 24.943940 Lz       = 24.943940 Density  = 0.986882 
---------------- Step   135000 ----- CPU =    125.8844 (sec) ----------------
Time     = 675000.000000 Temp     = 301.434663 Press    = -814.098105 
PotEng   = -10.122530 KinEng   = 0.896765 Lx       = 24.826582 
Ly       = 24.826582 Lz       = 24.826582 Density  = 1.000944 
---------------- Step   136000 ----- CPU =    126.8189 (sec) ----------------
Time     = 680000.000000 Temp     = 286.245417 Press    = -337.051317 
PotEng   = -10.072069 KinEng   = 0.851577 Lx       = 24.860267 
Ly       = 24.860267 Lz       = 24.860267 Density  = 0.996881 
---------------- Step   137000 ----- CPU =    127.7322 (sec) ----------------
Time     = 685000.000000 Temp     = 276.008356 Press    = 882.542384 
PotEng   = -10.101310 KinEng   = 0.821122 Lx       = 24.804939 
Ly       = 24.804939 Lz       = 24.804939 Density  = 1.003566 
---------------- Step   138000 ----- CPU =    128.6514 (sec) ----------------
Time     = 690000.000000 Temp     = 301.308057 Press    = -36.865274 
PotEng   = -10.028335 KinEng   = 0.896388 Lx       = 24.780286 
Ly       = 24.780286 Lz       = 24.780286 Density  = 1.006564 
---------------- Step   139000 ----- CPU =    129.6001 (sec) ----------------
Time     = 695000.000000 Temp     = 288.468435 Press    = 821.616325 
PotEng   = -10.012113 KinEng   = 0.858190 Lx       = 24.941219 
Ly       = 24.941219 Lz       = 24.941219 Density  = 0.987205 
---------------- Step   140000 ----- CPU =    130.5561 (sec) ----------------
Time     = 700000.000000 Temp     = 297.616176 Press    = -50.819875 
PotEng   = -10.026623 KinEng   = 0.885405 Lx       = 24.933149 
Ly       = 24.933149 Lz       = 24.933149 Density  = 0.988164 
---------------- Step   141000 ----- CPU =    131.4894 (sec) ----------------
Time     = 705000.000000 Temp     = 310.616812 Press    = 877.552558 
PotEng   = -10.054421 KinEng   = 0.924081 Lx       = 24.836953 
Ly       = 24.836953 Lz       = 24.836953 Density  = 0.999691 
---------------- Step   142000 ----- CPU =    132.4346 (sec) ----------------
Time     = 710000.000000 Temp     = 290.596090 Press    = 379.591915 
PotEng   = -10.043930 KinEng   = 0.864520 Lx       = 24.881838 
Ly       = 24.881838 Lz       = 24.881838 Density  = 0.994290 
---------------- Step   143000 ----- CPU =    133.3567 (sec) ----------------
Time     = 715000.000000 Temp     = 321.221801 Press    = 183.605795 
PotEng   = -10.035486 KinEng   = 0.955631 Lx       = 24.824731 
Ly       = 24.824731 Lz       = 24.824731 Density  = 1.001168 
---------------- Step   144000 ----- CPU =    134.2991 (sec) ----------------
Time     = 720000.000000 Temp     = 306.119580 Press    = -343.074142 
PotEng   = -10.064855 KinEng   = 0.910702 Lx       = 24.960731 
Ly       = 24.960731 Lz       = 24.960731 Density  = 0.984892 
---------------- Step   145000 ----- CPU =    135.2191 (sec) ----------------
Time     = 725000.000000 Temp     = 298.063291 Press    = 35.787643 
PotEng   = -10.023859 KinEng   = 0.886735 Lx       = 24.924516 
Ly       = 24.924516 Lz       = 24.924516 Density  = 0.989191 
---------------- Step   146000 ----- CPU =    136.1609 (sec) ----------------
Time     = 730000.000000 Temp     = 326.458735 Press    = -72.909651 
PotEng   = -10.093022 KinEng   = 0.971211 Lx       = 24.947627 
Ly       = 24.947627 Lz       = 24.947627 Density  = 0.986445 
---------------- Step   147000 ----- CPU =    137.0963 (sec) ----------------
Time     = 735000.000000 Temp     = 308.204618 Press    = 472.315466 
PotEng   = -10.028584 KinEng   = 0.916905 Lx       = 24.800273 
Ly       = 24.800273 Lz       = 24.800273 Density  = 1.004133 
---------------- Step   148000 ----- CPU =    138.0402 (sec) ----------------
Time     = 740000.000000 Temp     = 327.436600 Press    = 656.100563 
PotEng   = -10.005678 KinEng   = 0.974120 Lx       = 24.848587 
Ly       = 24.848587 Lz       = 24.848587 Density  = 0.998287 
---------------- Step   149000 ----- CPU =    138.9726 (sec) ----------------
Time     = 745000.000000 Temp     = 293.446303 Press    = -880.453641 
PotEng   = -10.076560 KinEng   = 0.872999 Lx       = 24.924658 
Ly       = 24.924658 Lz       = 24.924658 Density  = 0.989174 
---------------- Step   150000 ----- CPU =    139.8949 (sec) ----------------
Time     = 750000.000000 Temp     = 305.090318 Press    = 212.826640 
PotEng   = -10.124472 KinEng   = 0.907640 Lx       = 24.810558 
Ly       = 24.810558 Lz       = 24.810558 Density  = 1.002884 
---------------- Step   151000 ----- CPU =    140.8344 (sec) ----------------
Time     = 755000.000000 Temp     = 302.698933 Press    = 1991.358577 
PotEng   = -10.000772 KinEng   = 0.900526 Lx       = 24.813635 
Ly       = 24.813635 Lz       = 24.813635 Density  = 1.002511 
---------------- Step   152000 ----- CPU =    141.7459 (sec) ----------------
Time     = 760000.000000 Temp     = 283.966148 Press    = -475.723006 
PotEng   = -10.168944 KinEng   = 0.844796 Lx       = 24.884061 
Ly       = 24.884061 Lz       = 24.884061 Density  = 0.994024 
---------------- Step   153000 ----- CPU =    142.6724 (sec) ----------------
Time     = 765000.000000 Temp     = 300.368725 Press    = -362.789364 
PotEng   = -10.041776 KinEng   = 0.893593 Lx       = 24.841497 
Ly       = 24.841497 Lz       = 24.841497 Density  = 0.999142 
---------------- Step   154000 ----- CPU =    143.6207 (sec) ----------------
Time     = 770000.000000 Temp     = 309.076293 Press    = 237.490710 
PotEng   = -10.048776 KinEng   = 0.919498 Lx       = 24.818802 
Ly       = 24.818802 Lz       = 24.818802 Density  = 1.001886 
---------------- Step   155000 ----- CPU =    144.5760 (sec) ----------------
Time     = 775000.000000 Temp     = 309.334354 Press    = -228.402680 
PotEng   = -10.151319 KinEng   = 0.920266 Lx       = 24.819544 
Ly       = 24.819544 Lz       = 24.819544 Density  = 1.001796 
---------------- Step   156000 ----- CPU =    145.5317 (sec) ----------------
Time     = 780000.000000 Temp     = 294.137095 Press    = -397.920714 
PotEng   = -10.081582 KinEng   = 0.875054 Lx       = 24.831007 
Ly       = 24.831007 Lz       = 24.831007 Density  = 1.000409 
---------------- Step   157000 ----- CPU =    146.4863 (sec) ----------------
Time     = 785000.000000 Temp     = 314.496818 Press    = -46.293347 
PotEng   = -10.004391 KinEng   = 0.935624 Lx       = 24.903416 
Ly       = 24.903416 Lz       = 24.903416 Density  = 0.991708 
---------------- Step   158000 ----- CPU =    147.4394 (sec) ----------------
Time     = 790000.000000 Temp     = 297.938190 Press    = 355.933600 
PotEng   = -10.064608 KinEng   = 0.886363 Lx       = 24.860506 
Ly       = 24.860506 Lz       = 24.860506 Density  = 0.996852 
---------------- Step   159000 ----- CPU =    148.3609 (sec) ----------------
Time     = 795000.000000 Temp     = 297.360147 Press    = -176.664398 
PotEng   = -10.039642 KinEng   = 0.884643 Lx       = 24.860631 
Ly       = 24.860631 Lz       = 24.860631 Density  = 0.996837 
---------------- Step   160000 ----- CPU =    149.2868 (sec) ----------------
Time     = 800000.000000 Temp     = 294.522529 Press    = 510.884456 
PotEng   = -10.063540 KinEng   = 0.876201 Lx       = 24.843056 
Ly       = 24.843056 Lz       = 24.843056 Density  = 0.998954 
---------------- Step   161000 ----- CPU =    150.2177 (sec) ----------------
Time     = 805000.000000 Temp     = 306.479963 Press    = 674.400047 
PotEng   = -9.957176 KinEng   = 0.911774 Lx       = 24.931594 
Ly       = 24.931594 Lz       = 24.931594 Density  = 0.988349 
---------------- Step   162000 ----- CPU =    151.1491 (sec) ----------------
Time     = 810000.000000 Temp     = 294.761775 Press    = 1427.525931 
PotEng   = -10.051904 KinEng   = 0.876913 Lx       = 24.841874 
Ly       = 24.841874 Lz       = 24.841874 Density  = 0.999096 
---------------- Step   163000 ----- CPU =    152.0661 (sec) ----------------
Time     = 815000.000000 Temp     = 294.470530 Press    = 457.819742 
PotEng   = -9.991348 KinEng   = 0.876046 Lx       = 24.861611 
Ly       = 24.861611 Lz       = 24.861611 Density  = 0.996719 
---------------- Step   164000 ----- CPU =    153.0174 (sec) ----------------
Time     = 820000.000000 Temp     = 316.737872 Press    = -165.609485 
PotEng   = -9.995373 KinEng   = 0.942291 Lx       = 24.854130 
Ly       = 24.854130 Lz       = 24.854130 Density  = 0.997619 
---------------- Step   165000 ----- CPU =    153.9405 (sec) ----------------
Time     = 825000.000000 Temp     = 296.865431 Press    = 303.748867 
PotEng   = -9.995665 KinEng   = 0.883171 Lx       = 24.838425 
Ly       = 24.838425 Lz       = 24.838425 Density  = 0.999513 
---------------- Step   166000 ----- CPU =    154.8546 (sec) ----------------
Time     = 830000.000000 Temp     = 311.856005 Press    = 1087.753315 
PotEng   = -10.070573 KinEng   = 0.927768 Lx       = 24.790914 
Ly       = 24.790914 Lz       = 24.790914 Density  = 1.005270 
---------------- Step   167000 ----- CPU =    155.7710 (sec) ----------------
Time     = 835000.000000 Temp     = 321.505401 Press    = -758.528164 
PotEng   = -10.067842 KinEng   = 0.956475 Lx       = 24.803971 
Ly       = 24.803971 Lz       = 24.803971 Density  = 1.003684 
---------------- Step   168000 ----- CPU =    156.7206 (sec) ----------------
Time     = 840000.000000 Temp     = 312.227044 Press    = 1257.963880 
PotEng   = -10.047500 KinEng   = 0.928872 Lx       = 24.773633 
Ly       = 24.773633 Lz       = 24.773633 Density  = 1.007376 
---------------- Step   169000 ----- CPU =    157.6306 (sec) ----------------
Time     = 845000.000000 Temp     = 298.862207 Press    = -461.744213 
PotEng   = -10.113743 KinEng   = 0.889112 Lx       = 24.941142 
Ly       = 24.941142 Lz       = 24.941142 Density  = 0.987215 
---------------- Step   170000 ----- CPU =    158.5945 (sec) ----------------
Time     = 850000.000000 Temp     = 298.885192 Press    = -333.625949 
PotEng   = -10.074114 KinEng   = 0.889180 Lx       = 24.787363 
Ly       = 24.787363 Lz       = 24.787363 Density  = 1.005702 
---------------- Step   171000 ----- CPU =    159.5205 (sec) ----------------
Time     = 855000.000000 Temp     = 311.002620 Press    = -847.330970 
PotEng   = -10.098167 KinEng   = 0.925229 Lx       = 24.995409 
Ly       = 24.995409 Lz       = 24.995409 Density  = 0.980798 
---------------- Step   172000 ----- CPU =    160.4392 (sec) ----------------
Time     = 860000.000000 Temp     = 291.736089 Press    = -320.057861 
PotEng   = -10.060587 KinEng   = 0.867911 Lx       = 24.886621 
Ly       = 24.886621 Lz       = 24.886621 Density  = 0.993717 
---------------- Step   173000 ----- CPU =    161.3639 (sec) ----------------
Time     = 865000.000000 Temp     = 312.010090 Press    = -651.002307 
PotEng   = -10.128510 KinEng   = 0.928226 Lx       = 24.915618 
Ly       = 24.915618 Lz       = 24.915618 Density  = 0.990251 
---------------- Step   174000 ----- CPU =    162.3042 (sec) ----------------
Time     = 870000.000000 Temp     = 297.421023 Press    = -877.858817 
PotEng   = -10.088321 KinEng   = 0.884824 Lx       = 24.852699 
Ly       = 24.852699 Lz       = 24.852699 Density  = 0.997792 
---------------- Step   175000 ----- CPU =    163.2371 (sec) ----------------
Time     = 875000.000000 Temp     = 308.590374 Press    = 46.065063 
PotEng   = -10.058828 KinEng   = 0.918053 Lx       = 24.942442 
Ly       = 24.942442 Lz       = 24.942442 Density  = 0.987060 
---------------- Step   176000 ----- CPU =    164.1599 (sec) ----------------
Time     = 880000.000000 Temp     = 302.954299 Press    = 569.616057 
PotEng   = -10.066325 KinEng   = 0.901285 Lx       = 24.862312 
Ly       = 24.862312 Lz       = 24.862312 Density  = 0.996635 
---------------- Step   177000 ----- CPU =    165.0833 (sec) ----------------
Time     = 885000.000000 Temp     = 290.524017 Press    = -1146.370492 
PotEng   = -10.010438 KinEng   = 0.864306 Lx       = 24.920772 
Ly       = 24.920772 Lz       = 24.920772 Density  = 0.989637 
---------------- Step   178000 ----- CPU =    166.0055 (sec) ----------------
Time     = 890000.000000 Temp     = 307.417244 Press    = 132.619347 
PotEng   = -9.946688 KinEng   = 0.914563 Lx       = 24.904696 
Ly       = 24.904696 Lz       = 24.904696 Density  = 0.991555 
---------------- Step   179000 ----- CPU =    166.9650 (sec) ----------------
Time     = 895000.000000 Temp     = 306.143924 Press    = 331.345544 
PotEng   = -10.097358 KinEng   = 0.910775 Lx       = 24.884689 
Ly       = 24.884689 Lz       = 24.884689 Density  = 0.993948 
---------------- Step   180000 ----- CPU =    167.9022 (sec) ----------------
Time     = 900000.000000 Temp     = 309.556340 Press    = 329.084844 
PotEng   = -10.092258 KinEng   = 0.920926 Lx       = 24.899390 
Ly       = 24.899390 Lz       = 24.899390 Density  = 0.992189 
---------------- Step   181000 ----- CPU =    168.8307 (sec) ----------------
Time     = 905000.000000 Temp     = 295.745270 Press    = 42.285923 
PotEng   = -10.121276 KinEng   = 0.879839 Lx       = 24.738748 
Ly       = 24.738748 Lz       = 24.738748 Density  = 1.011643 
---------------- Step   182000 ----- CPU =    169.7825 (sec) ----------------
Time     = 910000.000000 Temp     = 301.350206 Press    = 549.298197 
PotEng   = -10.098453 KinEng   = 0.896513 Lx       = 24.832583 
Ly       = 24.832583 Lz       = 24.832583 Density  = 1.000218 
---------------- Step   183000 ----- CPU =    170.7296 (sec) ----------------
Time     = 915000.000000 Temp     = 294.319266 Press    = -979.600218 
PotEng   = -10.052654 KinEng   = 0.875596 Lx       = 24.889810 
Ly       = 24.889810 Lz       = 24.889810 Density  = 0.993335 
---------------- Step   184000 ----- CPU =    171.6708 (sec) ----------------
Time     = 920000.000000 Temp     = 288.315549 Press    = -1416.949327 
PotEng   = -10.084533 KinEng   = 0.857735 Lx       = 24.942270 
Ly       = 24.942270 Lz       = 24.942270 Density  = 0.987081 
---------------- Step   185000 ----- CPU =    172.6087 (sec) ----------------
Time     = 925000.000000 Temp     = 315.682981 Press    = 200.145685 
PotEng   = -10.054442 KinEng   = 0.939153 Lx       = 24.850412 
Ly       = 24.850412 Lz       = 24.850412 Density  = 0.998067 
---------------- Step   186000 ----- CPU =    173.5340 (sec) ----------------
Time     = 930000.000000 Temp     = 295.468918 Press    = 107.391954 
PotEng   = -10.081627 KinEng   = 0.879017 Lx       = 24.901427 
Ly       = 24.901427 Lz       = 24.901427 Density  = 0.991945 
---------------- Step   187000 ----- CPU =    174.4475 (sec) ----------------
Time     = 935000.000000 Temp     = 292.502201 Press    = 392.345871 
PotEng   = -10.097418 KinEng   = 0.870191 Lx       = 24.823245 
Ly       = 24.823245 Lz       = 24.823245 Density  = 1.001348 
---------------- Step   188000 ----- CPU =    175.3781 (sec) ----------------
Time     = 940000.000000 Temp     = 304.556820 Press    = -224.394500 
PotEng   = -10.068393 KinEng   = 0.906053 Lx       = 24.793721 
Ly       = 24.793721 Lz       = 24.793721 Density  = 1.004929 
---------------- Step   189000 ----- CPU =    176.2940 (sec) ----------------
Time     = 945000.000000 Temp     = 296.973663 Press    = -1672.933891 
PotEng   = -10.044194 KinEng   = 0.883493 Lx       = 25.017043 
Ly       = 25.017043 Lz       = 25.017043 Density  = 0.978256 
---------------- Step   190000 ----- CPU =    177.2435 (sec) ----------------
Time     = 950000.000000 Temp     = 308.662324 Press    = -695.198516 
PotEng   = -10.009169 KinEng   = 0.918267 Lx       = 24.810746 
Ly       = 24.810746 Lz       = 24.810746 Density  = 1.002862 
---------------- Step   191000 ----- CPU =    178.1859 (sec) ----------------
Time     = 955000.000000 Temp     = 289.375377 Press    = -1174.278465 
PotEng   = -10.132882 KinEng   = 0.860888 Lx       = 24.964202 
Ly       = 24.964202 Lz       = 24.964202 Density  = 0.984481 
---------------- Step   192000 ----- CPU =    179.1354 (sec) ----------------
Time     = 960000.000000 Temp     = 281.536990 Press    = -305.617387 
PotEng   = -10.076884 KinEng   = 0.837569 Lx       = 24.797062 
Ly       = 24.797062 Lz       = 24.797062 Density  = 1.004523 
---------------- Step   193000 ----- CPU =    180.0633 (sec) ----------------
Time     = 965000.000000 Temp     = 299.268208 Press    = 468.167845 
PotEng   = -10.050102 KinEng   = 0.890319 Lx       = 24.827280 
Ly       = 24.827280 Lz       = 24.827280 Density  = 1.000859 
---------------- Step   194000 ----- CPU =    180.9841 (sec) ----------------
Time     = 970000.000000 Temp     = 306.940358 Press    = 1354.186335 
PotEng   = -10.059964 KinEng   = 0.913144 Lx       = 24.864199 
Ly       = 24.864199 Lz       = 24.864199 Density  = 0.996408 
---------------- Step   195000 ----- CPU =    181.9066 (sec) ----------------
Time     = 975000.000000 Temp     = 297.739480 Press    = -887.722790 
PotEng   = -10.108638 KinEng   = 0.885771 Lx       = 24.860594 
Ly       = 24.860594 Lz       = 24.860594 Density  = 0.996841 
---------------- Step   196000 ----- CPU =    182.8462 (sec) ----------------
Time     = 980000.000000 Temp     = 293.702651 Press    = -381.196340 
PotEng   = -10.006250 KinEng   = 0.873762 Lx       = 24.934629 
Ly       = 24.934629 Lz       = 24.934629 Density  = 0.987988 
---------------- Step   197000 ----- CPU =    183.7908 (sec) ----------------
Time     = 985000.000000 Temp     = 281.716696 Press    = 429.919209 
PotEng   = -10.080689 KinEng   = 0.838104 Lx       = 24.898126 
Ly       = 24.898126 Lz       = 24.898126 Density  = 0.992340 
---------------- Step   198000 ----- CPU =    184.7198 (sec) ----------------
Time     = 990000.000000 Temp     = 292.398968 Press    = -463.784672 
PotEng   = -10.021277 KinEng   = 0.869883 Lx       = 24.880799 
Ly       = 24.880799 Lz       = 24.880799 Density  = 0.994415 
---------------- Step   199000 ----- CPU =    185.6468 (sec) ----------------
Time     = 995000.000000 Temp     = 311.204711 Press    = -810.979294 
PotEng   = -10.028790 KinEng   = 0.925830 Lx       = 24.894904 
Ly       = 24.894904 Lz       = 24.894904 Density  = 0.992725 
---------------- Step   200000 ----- CPU =    186.5882 (sec) ----------------
Time     = 1000000.000000 Temp     = 301.938283 Press    = -647.123073 
PotEng   = -10.136917 KinEng   = 0.898263 Lx       = 24.845827 
Ly       = 24.845827 Lz       = 24.845827 Density  = 0.998620 
---------------- Step   201000 ----- CPU =    187.5073 (sec) ----------------
Time     = 1005000.000000 Temp     = 306.343693 Press    = 394.127398 
PotEng   = -10.086028 KinEng   = 0.911369 Lx       = 24.909035 
Ly       = 24.909035 Lz       = 24.909035 Density  = 0.991037 
---------------- Step   202000 ----- CPU =    188.4545 (sec) ----------------
Time     = 1010000.000000 Temp     = 312.185501 Press    = -775.013812 
PotEng   = -10.041697 KinEng   = 0.928748 Lx       = 24.888182 
Ly       = 24.888182 Lz       = 24.888182 Density  = 0.993530 
---------------- Step   203000 ----- CPU =    189.3662 (sec) ----------------
Time     = 1015000.000000 Temp     = 296.455921 Press    = -144.051290 
PotEng   = -10.058090 KinEng   = 0.881953 Lx       = 24.885113 
Ly       = 24.885113 Lz       = 24.885113 Density  = 0.993898 
---------------- Step   204000 ----- CPU =    190.2800 (sec) ----------------
Time     = 1020000.000000 Temp     = 312.540373 Press    = 383.819185 
PotEng   = -10.069045 KinEng   = 0.929804 Lx       = 24.864964 
Ly       = 24.864964 Lz       = 24.864964 Density  = 0.996316 
---------------- Step   205000 ----- CPU =    191.2084 (sec) ----------------
Time     = 1025000.000000 Temp     = 291.566884 Press    = 398.756514 
PotEng   = -10.128619 KinEng   = 0.867408 Lx       = 24.796461 
Ly       = 24.796461 Lz       = 24.796461 Density  = 1.004596 
---------------- Step   206000 ----- CPU =    192.1412 (sec) ----------------
Time     = 1030000.000000 Temp     = 299.317451 Press    = 306.949428 
PotEng   = -10.036207 KinEng   = 0.890466 Lx       = 24.809204 
Ly       = 24.809204 Lz       = 24.809204 Density  = 1.003049 
---------------- Step   207000 ----- CPU =    193.0617 (sec) ----------------
Time     = 1035000.000000 Temp     = 309.483830 Press    = 1064.926645 
PotEng   = -10.008221 KinEng   = 0.920711 Lx       = 24.792824 
Ly       = 24.792824 Lz       = 24.792824 Density  = 1.005038 
---------------- Step   208000 ----- CPU =    193.9826 (sec) ----------------
Time     = 1040000.000000 Temp     = 309.606984 Press    = -274.976050 
PotEng   = -10.164189 KinEng   = 0.921077 Lx       = 24.851966 
Ly       = 24.851966 Lz       = 24.851966 Density  = 0.997880 
---------------- Step   209000 ----- CPU =    194.9091 (sec) ----------------
Time     = 1045000.000000 Temp     = 291.932462 Press    = 647.022819 
PotEng   = -10.052888 KinEng   = 0.868496 Lx       = 24.910634 
Ly       = 24.910634 Lz       = 24.910634 Density  = 0.990846 
---------------- Step   210000 ----- CPU =    195.8459 (sec) ----------------
Time     = 1050000.000000 Temp     = 315.356791 Press    = -162.582266 
PotEng   = -10.049353 KinEng   = 0.938183 Lx       = 24.835262 
Ly       = 24.835262 Lz       = 24.835262 Density  = 0.999895 
---------------- Step   211000 ----- CPU =    196.7755 (sec) ----------------
Time     = 1055000.000000 Temp     = 288.740973 Press    = 179.125875 
PotEng   = -10.073760 KinEng   = 0.859001 Lx       = 24.855271 
Ly       = 24.855271 Lz       = 24.855271 Density  = 0.997482 
---------------- Step   212000 ----- CPU =    197.7084 (sec) ----------------
Time     = 1060000.000000 Temp     = 296.167317 Press    = 1735.079241 
PotEng   = -10.029996 KinEng   = 0.881094 Lx       = 24.710312 
Ly       = 24.710312 Lz       = 24.710312 Density  = 1.015140 
---------------- Step   213000 ----- CPU =    198.6688 (sec) ----------------
Time     = 1065000.000000 Temp     = 307.788836 Press    = 46.099059 
PotEng   = -10.020636 KinEng   = 0.915668 Lx       = 24.839978 
Ly       = 24.839978 Lz       = 24.839978 Density  = 0.999325 
---------------- Step   214000 ----- CPU =    199.6098 (sec) ----------------
Time     = 1070000.000000 Temp     = 311.156125 Press    = 178.557760 
PotEng   = -10.041124 KinEng   = 0.925686 Lx       = 24.938043 
Ly       = 24.938043 Lz       = 24.938043 Density  = 0.987583 
---------------- Step   215000 ----- CPU =    200.5515 (sec) ----------------
Time     = 1075000.000000 Temp     = 301.228712 Press    = 632.607976 
PotEng   = -10.091602 KinEng   = 0.896152 Lx       = 24.851628 
Ly       = 24.851628 Lz       = 24.851628 Density  = 0.997921 
---------------- Step   216000 ----- CPU =    201.4692 (sec) ----------------
Time     = 1080000.000000 Temp     = 319.930940 Press    = 181.966722 
PotEng   = -10.064510 KinEng   = 0.951791 Lx       = 24.806543 
Ly       = 24.806543 Lz       = 24.806543 Density  = 1.003371 
---------------- Step   217000 ----- CPU =    202.4122 (sec) ----------------
Time     = 1085000.000000 Temp     = 295.909604 Press    = -961.478027 
PotEng   = -10.109421 KinEng   = 0.880328 Lx       = 24.946176 
Ly       = 24.946176 Lz       = 24.946176 Density  = 0.986617 
---------------- Step   218000 ----- CPU =    203.3458 (sec) ----------------
Time     = 1090000.000000 Temp     = 296.776796 Press    = 825.380923 
PotEng   = -10.128489 KinEng   = 0.882907 Lx       = 24.799923 
Ly       = 24.799923 Lz       = 24.799923 Density  = 1.004175 
---------------- Step   219000 ----- CPU =    204.2640 (sec) ----------------
Time     = 1095000.000000 Temp     = 310.813482 Press    = 171.046487 
PotEng   = -10.056342 KinEng   = 0.924666 Lx       = 24.807617 
Ly       = 24.807617 Lz       = 24.807617 Density  = 1.003241 
---------------- Step   220000 ----- CPU =    205.1881 (sec) ----------------
Time     = 1100000.000000 Temp     = 295.158405 Press    = -922.318929 
PotEng   = -10.076918 KinEng   = 0.878093 Lx       = 24.925533 
Ly       = 24.925533 Lz       = 24.925533 Density  = 0.989070 
---------------- Step   221000 ----- CPU =    206.1397 (sec) ----------------
Time     = 1105000.000000 Temp     = 298.457631 Press    = -159.306961 
PotEng   = -10.030256 KinEng   = 0.887908 Lx       = 24.898457 
Ly       = 24.898457 Lz       = 24.898457 Density  = 0.992300 
---------------- Step   222000 ----- CPU =    207.0782 (sec) ----------------
Time     = 1110000.000000 Temp     = 303.331308 Press    = 881.527581 
PotEng   = -10.100934 KinEng   = 0.902407 Lx       = 24.804357 
Ly       = 24.804357 Lz       = 24.804357 Density  = 1.003637 
---------------- Step   223000 ----- CPU =    208.0167 (sec) ----------------
Time     = 1115000.000000 Temp     = 300.046454 Press    = -677.905899 
PotEng   = -10.146318 KinEng   = 0.892635 Lx       = 24.848686 
Ly       = 24.848686 Lz       = 24.848686 Density  = 0.998275 
---------------- Step   224000 ----- CPU =    208.9456 (sec) ----------------
Time     = 1120000.000000 Temp     = 303.042637 Press    = 142.255985 
PotEng   = -10.117916 KinEng   = 0.901548 Lx       = 24.727801 
Ly       = 24.727801 Lz       = 24.727801 Density  = 1.012987 
---------------- Step   225000 ----- CPU =    209.8607 (sec) ----------------
Time     = 1125000.000000 Temp     = 316.667695 Press    = -508.364497 
PotEng   = -10.017214 KinEng   = 0.942083 Lx       = 24.840864 
Ly       = 24.840864 Lz       = 24.840864 Density  = 0.999218 
---------------- Step   226000 ----- CPU =    210.8000 (sec) ----------------
Time     = 1130000.000000 Temp     = 302.233828 Press    = -128.902658 
PotEng   = -10.114180 KinEng   = 0.899142 Lx       = 24.810258 
Ly       = 24.810258 Lz       = 24.810258 Density  = 1.002921 
---------------- Step   227000 ----- CPU =    211.7461 (sec) ----------------
Time     = 1135000.000000 Temp     = 297.457300 Press    = -499.001143 
PotEng   = -10.022949 KinEng   = 0.884932 Lx       = 24.918535 
Ly       = 24.918535 Lz       = 24.918535 Density  = 0.989904 
---------------- Step   228000 ----- CPU =    212.6406 (sec) ----------------
Time     = 1140000.000000 Temp     = 282.737630 Press    = -239.993204 
PotEng   = -10.042161 KinEng   = 0.841141 Lx       = 24.931596 
Ly       = 24.931596 Lz       = 24.931596 Density  = 0.988349 
---------------- Step   229000 ----- CPU =    213.5575 (sec) ----------------
Time     = 1145000.000000 Temp     = 315.959505 Press    = 360.523693 
PotEng   = -10.157721 KinEng   = 0.939976 Lx       = 24.807953 
Ly       = 24.807953 Lz       = 24.807953 Density  = 1.003201 
---------------- Step   230000 ----- CPU =    214.4650 (sec) ----------------
Time     = 1150000.000000 Temp     = 289.795375 Press    = -156.137398 
PotEng   = -9.971756 KinEng   = 0.862138 Lx       = 24.929796 
Ly       = 24.929796 Lz       = 24.929796 Density  = 0.988563 
---------------- Step   231000 ----- CPU =    215.3960 (sec) ----------------
Time     = 1155000.000000 Temp     = 316.372549 Press    = 967.753517 
PotEng   = -10.016911 KinEng   = 0.941205 Lx       = 24.827230 
Ly       = 24.827230 Lz       = 24.827230 Density  = 1.000865 
---------------- Step   232000 ----- CPU =    216.3501 (sec) ----------------
Time     = 1160000.000000 Temp     = 305.118766 Press    = 18.170233 
PotEng   = -10.072870 KinEng   = 0.907725 Lx       = 24.892044 
Ly       = 24.892044 Lz       = 24.892044 Density  = 0.993068 
---------------- Step   233000 ----- CPU =    217.2554 (sec) ----------------
Time     = 1165000.000000 Temp     = 317.971823 Press    = 1251.532445 
PotEng   = -10.061520 KinEng   = 0.945962 Lx       = 24.858992 
Ly       = 24.858992 Lz       = 24.858992 Density  = 0.997034 
---------------- Step   234000 ----- CPU =    218.2168 (sec) ----------------
Time     = 1170000.000000 Temp     = 295.056811 Press    = -28.314998 
PotEng   = -10.115746 KinEng   = 0.877791 Lx       = 24.879165 
Ly       = 24.879165 Lz       = 24.879165 Density  = 0.994611 
---------------- Step   235000 ----- CPU =    219.1393 (sec) ----------------
Time     = 1175000.000000 Temp     = 300.001185 Press    = 167.933421 
PotEng   = -10.034355 KinEng   = 0.892500 Lx       = 24.838753 
Ly       = 24.838753 Lz       = 24.838753 Density  = 0.999473 
---------------- Step   236000 ----- CPU =    220.0833 (sec) ----------------
Time     = 1180000.000000 Temp     = 306.972255 Press    = 861.349441 
PotEng   = -10.145120 KinEng   = 0.913239 Lx       = 24.795405 
Ly       = 24.795405 Lz       = 24.795405 Density  = 1.004724 
---------------- Step   237000 ----- CPU =    221.0331 (sec) ----------------
Time     = 1185000.000000 Temp     = 277.252784 Press    = -1215.864846 
PotEng   = -10.033307 KinEng   = 0.824824 Lx       = 24.858475 
Ly       = 24.858475 Lz       = 24.858475 Density  = 0.997096 
---------------- Step   238000 ----- CPU =    221.9690 (sec) ----------------
Time     = 1190000.000000 Temp     = 286.517586 Press    = 270.534925 
PotEng   = -10.030636 KinEng   = 0.852386 Lx       = 24.796643 
Ly       = 24.796643 Lz       = 24.796643 Density  = 1.004574 
---------------- Step   239000 ----- CPU =    222.8855 (sec) ----------------
Time     = 1195000.000000 Temp     = 323.604986 Press    = 35.493994 
PotEng   = -10.051758 KinEng   = 0.962721 Lx       = 24.952684 
Ly       = 24.952684 Lz       = 24.952684 Density  = 0.985845 
---------------- Step   240000 ----- CPU =    223.8001 (sec) ----------------
Time     = 1200000.000000 Temp     = 297.940576 Press    = -241.380527 
PotEng   = -10.054179 KinEng   = 0.886370 Lx       = 24.855040 
Ly       = 24.855040 Lz       = 24.855040 Density  = 0.997510 
---------------- Step   241000 ----- CPU =    224.7533 (sec) ----------------
Time     = 1205000.000000 Temp     = 313.570835 Press    = 1543.544589 
PotEng   = -9.979730 KinEng   = 0.932870 Lx       = 24.801100 
Ly       = 24.801100 Lz       = 24.801100 Density  = 1.004032 
---------------- Step   242000 ----- CPU =    225.6821 (sec) ----------------
Time     = 1210000.000000 Temp     = 289.549860 Press    = 1595.636123 
PotEng   = -10.110837 KinEng   = 0.861407 Lx       = 24.816666 
Ly       = 24.816666 Lz       = 24.816666 Density  = 1.002144 
---------------- Step   243000 ----- CPU =    226.6116 (sec) ----------------
Time     = 1215000.000000 Temp     = 308.287863 Press    = 443.292897 
PotEng   = -10.098091 KinEng   = 0.917153 Lx       = 24.842903 
Ly       = 24.842903 Lz       = 24.842903 Density  = 0.998972 
---------------- Step   244000 ----- CPU =    227.5427 (sec) ----------------
Time     = 1220000.000000 Temp     = 304.958136 Press    = -785.846487 
PotEng   = -10.012910 KinEng   = 0.907247 Lx       = 24.873653 
Ly       = 24.873653 Lz       = 24.873653 Density  = 0.995272 
---------------- Step   245000 ----- CPU =    228.4684 (sec) ----------------
Time     = 1225000.000000 Temp     = 306.009301 Press    = -446.768224 
PotEng   = -10.079657 KinEng   = 0.910374 Lx       = 24.846350 
Ly       = 24.846350 Lz       = 24.846350 Density  = 0.998557 
---------------- Step   246000 ----- CPU =    229.3963 (sec) ----------------
Time     = 1230000.000000 Temp     = 313.166646 Press    = 930.251623 
PotEng   = -10.031813 KinEng   = 0.931667 Lx       = 24.820113 
Ly       = 24.820113 Lz       = 24.820113 Density  = 1.001727 
---------------- Step   247000 ----- CPU =    230.3349 (sec) ----------------
Time     = 1235000.000000 Temp     = 295.888654 Press    = -844.740365 
PotEng   = -10.148882 KinEng   = 0.880265 Lx       = 24.885426 
Ly       = 24.885426 Lz       = 24.885426 Density  = 0.993860 
---------------- Step   248000 ----- CPU =    231.2688 (sec) ----------------
Time     = 1240000.000000 Temp     = 302.068422 Press    = -540.897746 
PotEng   = -10.100430 KinEng   = 0.898650 Lx       = 24.852153 
Ly       = 24.852153 Lz       = 24.852153 Density  = 0.997857 
---------------- Step   249000 ----- CPU =    232.2237 (sec) ----------------
Time     = 1245000.000000 Temp     = 277.046909 Press    = -1113.301745 
PotEng   = -10.096263 KinEng   = 0.824211 Lx       = 24.850513 
Ly       = 24.850513 Lz       = 24.850513 Density  = 0.998055 
---------------- Step   250000 ----- CPU =    233.1621 (sec) ----------------
Time     = 1250000.000000 Temp     = 306.036503 Press    = 448.072406 
PotEng   = -10.095030 KinEng   = 0.910455 Lx       = 24.848502 
Ly       = 24.848502 Lz       = 24.848502 Density  = 0.998297 
---------------- Step   251000 ----- CPU =    234.1032 (sec) ----------------
Time     = 1255000.000000 Temp     = 301.348758 Press    = 269.895552 
PotEng   = -10.064998 KinEng   = 0.896509 Lx       = 24.873628 
Ly       = 24.873628 Lz       = 24.873628 Density  = 0.995275 
---------------- Step   252000 ----- CPU =    235.0485 (sec) ----------------
Time     = 1260000.000000 Temp     = 286.445070 Press    = -1107.455712 
PotEng   = -10.025102 KinEng   = 0.852171 Lx       = 24.964313 
Ly       = 24.964313 Lz       = 24.964313 Density  = 0.984468 
---------------- Step   253000 ----- CPU =    235.9923 (sec) ----------------
Time     = 1265000.000000 Temp     = 310.523865 Press    = -28.947450 
PotEng   = -10.100856 KinEng   = 0.923805 Lx       = 24.821323 
Ly       = 24.821323 Lz       = 24.821323 Density  = 1.001580 
---------------- Step   254000 ----- CPU =    236.9363 (sec) ----------------
Time     = 1270000.000000 Temp     = 311.816146 Press    = 459.642333 
PotEng   = -10.031604 KinEng   = 0.927649 Lx       = 24.805257 
Ly       = 24.805257 Lz       = 24.805257 Density  = 1.003528 
---------------- Step   255000 ----- CPU =    237.8665 (sec) ----------------
Time     = 1275000.000000 Temp     = 314.474857 Press    = 1251.848308 
PotEng   = -10.012785 KinEng   = 0.935559 Lx       = 24.796439 
Ly       = 24.796439 Lz       = 24.796439 Density  = 1.004599 
---------------- Step   256000 ----- CPU =    238.7976 (sec) ----------------
Time     = 1280000.000000 Temp     = 301.867734 Press    = -146.105536 
PotEng   = -10.144501 KinEng   = 0.898053 Lx       = 24.877088 
Ly       = 24.877088 Lz       = 24.877088 Density  = 0.994860 
---------------- Step   257000 ----- CPU =    239.7370 (sec) ----------------
Time     = 1285000.000000 Temp     = 311.438736 Press    = 122.449801 
PotEng   = -9.979903 KinEng   = 0.926527 Lx       = 24.852699 
Ly       = 24.852699 Lz       = 24.852699 Density  = 0.997792 
---------------- Step   258000 ----- CPU =    240.6841 (sec) ----------------
Time     = 1290000.000000 Temp     = 289.097818 Press    = 29.465856 
PotEng   = -10.053038 KinEng   = 0.860063 Lx       = 24.857920 
Ly       = 24.857920 Lz       = 24.857920 Density  = 0.997163 
---------------- Step   259000 ----- CPU =    241.6105 (sec) ----------------
Time     = 1295000.000000 Temp     = 308.037364 Press    = -534.747940 
PotEng   = -10.104379 KinEng   = 0.916408 Lx       = 24.887415 
Ly       = 24.887415 Lz       = 24.887415 Density  = 0.993622 
---------------- Step   260000 ----- CPU =    242.5309 (sec) ----------------
Time     = 1300000.000000 Temp     = 305.779696 Press    = -736.540742 
PotEng   = -10.036199 KinEng   = 0.909691 Lx       = 24.949754 
Ly       = 24.949754 Lz       = 24.949754 Density  = 0.986193 
---------------- Step   261000 ----- CPU =    243.4474 (sec) ----------------
Time     = 1305000.000000 Temp     = 292.891596 Press    = -542.533469 
PotEng   = -10.009481 KinEng   = 0.871349 Lx       = 24.906163 
Ly       = 24.906163 Lz       = 24.906163 Density  = 0.991380 
---------------- Step   262000 ----- CPU =    244.3702 (sec) ----------------
Time     = 1310000.000000 Temp     = 300.134583 Press    = -52.679044 
PotEng   = -10.099507 KinEng   = 0.892897 Lx       = 24.845979 
Ly       = 24.845979 Lz       = 24.845979 Density  = 0.998601 
---------------- Step   263000 ----- CPU =    245.3093 (sec) ----------------
Time     = 1315000.000000 Temp     = 288.498173 Press    = 489.573137 
PotEng   = -10.133650 KinEng   = 0.858279 Lx       = 24.790365 
Ly       = 24.790365 Lz       = 24.790365 Density  = 1.005337 
---------------- Step   264000 ----- CPU =    246.2379 (sec) ----------------
Time     = 1320000.000000 Temp     = 295.804642 Press    = -483.022052 
PotEng   = -10.075520 KinEng   = 0.880015 Lx       = 24.881419 
Ly       = 24.881419 Lz       = 24.881419 Density  = 0.994340 
---------------- Step   265000 ----- CPU =    247.1772 (sec) ----------------
Time     = 1325000.000000 Temp     = 266.272602 Press    = 112.744464 
PotEng   = -10.055493 KinEng   = 0.792158 Lx       = 24.794705 
Ly       = 24.794705 Lz       = 24.794705 Density  = 1.004809 
---------------- Step   266000 ----- CPU =    248.1096 (sec) ----------------
Time     = 1330000.000000 Temp     = 311.662093 Press    = 696.847683 
PotEng   = -9.982130 KinEng   = 0.927191 Lx       = 24.851504 
Ly       = 24.851504 Lz       = 24.851504 Density  = 0.997936 
---------------- Step   267000 ----- CPU =    249.0581 (sec) ----------------
Time     = 1335000.000000 Temp     = 295.679795 Press    = -284.154121 
PotEng   = -10.054417 KinEng   = 0.879644 Lx       = 24.846183 
Ly       = 24.846183 Lz       = 24.846183 Density  = 0.998577 
---------------- Step   268000 ----- CPU =    249.9913 (sec) ----------------
Time     = 1340000.000000 Temp     = 316.208792 Press    = 100.997507 
PotEng   = -10.066570 KinEng   = 0.940717 Lx       = 24.851410 
Ly       = 24.851410 Lz       = 24.851410 Density  = 0.997947 
---------------- Step   269000 ----- CPU =    250.9293 (sec) ----------------
Time     = 1345000.000000 Temp     = 290.672217 Press    = -676.707280 
PotEng   = -10.041622 KinEng   = 0.864746 Lx       = 24.899937 
Ly       = 24.899937 Lz       = 24.899937 Density  = 0.992124 
---------------- Step   270000 ----- CPU =    251.8758 (sec) ----------------
Time     = 1350000.000000 Temp     = 309.704472 Press    = -1140.373481 
PotEng   = -10.114410 KinEng   = 0.921367 Lx       = 24.858628 
Ly       = 24.858628 Lz       = 24.858628 Density  = 0.997078 
---------------- Step   271000 ----- CPU =    252.8250 (sec) ----------------
Time     = 1355000.000000 Temp     = 286.827171 Press    = -500.469356 
PotEng   = -10.025927 KinEng   = 0.853307 Lx       = 24.819010 
Ly       = 24.819010 Lz       = 24.819010 Density  = 1.001860 
---------------- Step   272000 ----- CPU =    253.7603 (sec) ----------------
Time     = 1360000.000000 Temp     = 295.959740 Press    = -116.491391 
PotEng   = -10.071190 KinEng   = 0.880477 Lx       = 24.928181 
Ly       = 24.928181 Lz       = 24.928181 Density  = 0.988755 
---------------- Step   273000 ----- CPU =    254.6862 (sec) ----------------
Time     = 1365000.000000 Temp     = 310.633441 Press    = 900.785167 
PotEng   = -10.109381 KinEng   = 0.924131 Lx       = 24.873933 
Ly       = 24.873933 Lz       = 24.873933 Density  = 0.995238 
---------------- Step   274000 ----- CPU =    255.6065 (sec) ----------------
Time     = 1370000.000000 Temp     = 287.388843 Press    = 443.828144 
PotEng   = -10.134598 KinEng   = 0.854978 Lx       = 24.858773 
Ly       = 24.858773 Lz       = 24.858773 Density  = 0.997060 
---------------- Step   275000 ----- CPU =    256.5205 (sec) ----------------
Time     = 1375000.000000 Temp     = 301.658002 Press    = 322.834345 
PotEng   = -10.038206 KinEng   = 0.897429 Lx       = 24.915044 
Ly       = 24.915044 Lz       = 24.915044 Density  = 0.990320 
---------------- Step   276000 ----- CPU =    257.4435 (sec) ----------------
Time     = 1380000.000000 Temp     = 281.036053 Press    = 333.094330 
PotEng   = -10.007376 KinEng   = 0.836079 Lx       = 24.859529 
Ly       = 24.859529 Lz       = 24.859529 Density  = 0.996969 
---------------- Step   277000 ----- CPU =    258.3744 (sec) ----------------
Time     = 1385000.000000 Temp     = 298.508517 Press    = 760.244701 
PotEng   = -9.986759 KinEng   = 0.888059 Lx       = 24.870745 
Ly       = 24.870745 Lz       = 24.870745 Density  = 0.995621 
---------------- Step   278000 ----- CPU =    259.3057 (sec) ----------------
Time     = 1390000.000000 Temp     = 298.348952 Press    = -283.974586 
PotEng   = -10.037130 KinEng   = 0.887585 Lx       = 24.888592 
Ly       = 24.888592 Lz       = 24.888592 Density  = 0.993481 
---------------- Step   279000 ----- CPU =    260.2358 (sec) ----------------
Time     = 1395000.000000 Temp     = 299.238662 Press    = 952.225559 
PotEng   = -10.091625 KinEng   = 0.890231 Lx       = 24.810063 
Ly       = 24.810063 Lz       = 24.810063 Density  = 1.002945 
---------------- Step   280000 ----- CPU =    261.1444 (sec) ----------------
Time     = 1400000.000000 Temp     = 303.878361 Press    = 1527.319612 
PotEng   = -10.012304 KinEng   = 0.904035 Lx       = 24.777924 
Ly       = 24.777924 Lz       = 24.777924 Density  = 1.006852 
---------------- Step   281000 ----- CPU =    262.0762 (sec) ----------------
Time     = 1405000.000000 Temp     = 297.157342 Press    = 350.926683 
PotEng   = -10.071582 KinEng   = 0.884040 Lx       = 24.832587 
Ly       = 24.832587 Lz       = 24.832587 Density  = 1.000218 
---------------- Step   282000 ----- CPU =    263.0111 (sec) ----------------
Time     = 1410000.000000 Temp     = 305.154906 Press    = -502.193408 
PotEng   = -10.074199 KinEng   = 0.907832 Lx       = 24.878213 
Ly       = 24.878213 Lz       = 24.878213 Density  = 0.994725 
---------------- Step   283000 ----- CPU =    263.9501 (sec) ----------------
Time     = 1415000.000000 Temp     = 288.672497 Press    = 433.875701 
PotEng   = -10.045068 KinEng   = 0.858797 Lx       = 24.803402 
Ly       = 24.803402 Lz       = 24.803402 Density  = 1.003753 
---------------- Step   284000 ----- CPU =    264.8987 (sec) ----------------
Time     = 1420000.000000 Temp     = 307.269324 Press    = -852.892304 
PotEng   = -10.091399 KinEng   = 0.914123 Lx       = 24.997500 
Ly       = 24.997500 Lz       = 24.997500 Density  = 0.980552 
---------------- Step   285000 ----- CPU =    265.8397 (sec) ----------------
Time     = 1425000.000000 Temp     = 297.456313 Press    = 146.997649 
PotEng   = -10.022347 KinEng   = 0.884929 Lx       = 24.856515 
Ly       = 24.856515 Lz       = 24.856515 Density  = 0.997332 
---------------- Step   286000 ----- CPU =    266.7620 (sec) ----------------
Time     = 1430000.000000 Temp     = 306.266608 Press    = -98.617039 
PotEng   = -9.988792 KinEng   = 0.911140 Lx       = 24.895860 
Ly       = 24.895860 Lz       = 24.895860 Density  = 0.992611 
---------------- Step   287000 ----- CPU =    267.6729 (sec) ----------------
[...]
---------------- Step   433000 ----- CPU =    404.9342 (sec) ----------------
Time     = 7165000.000000 Temp     = 287.556687 Press    = 838.238131 
PotEng   = -10.068874 KinEng   = 0.855478 Lx       = 24.844592 
Ly       = 24.844592 Lz       = 24.844592 Density  = 0.998769 
---------------- Step   434000 ----- CPU =    405.8725 (sec) ----------------
Time     = 7170000.000000 Temp     = 303.660319 Press    = 553.112118 
PotEng   = -9.999864 KinEng   = 0.903386 Lx       = 24.861425 
Ly       = 24.861425 Lz       = 24.861425 Density  = 0.996741 
---------------- Step   435000 ----- CPU =    406.8194 (sec) ----------------
Time     = 7175000.000000 Temp     = 283.611000 Press    = -156.821945 
PotEng   = -10.088705 KinEng   = 0.843739 Lx       = 24.786598 
Ly       = 24.786598 Lz       = 24.786598 Density  = 1.005796 
---------------- Step   436000 ----- CPU =    407.7880 (sec) ----------------
Time     = 7180000.000000 Temp     = 307.275916 Press    = -449.900671 
PotEng   = -10.033837 KinEng   = 0.914142 Lx       = 24.877555 
Ly       = 24.877555 Lz       = 24.877555 Density  = 0.994804 
---------------- Step   437000 ----- CPU =    408.7525 (sec) ----------------
Time     = 7185000.000000 Temp     = 309.006375 Press    = 631.729472 
PotEng   = -10.062112 KinEng   = 0.919290 Lx       = 24.746456 
Ly       = 24.746456 Lz       = 24.746456 Density  = 1.010698 
---------------- Step   438000 ----- CPU =    409.6720 (sec) ----------------
Time     = 7190000.000000 Temp     = 312.877355 Press    = 401.457636 
PotEng   = -10.149690 KinEng   = 0.930806 Lx       = 24.823343 
Ly       = 24.823343 Lz       = 24.823343 Density  = 1.001336 
---------------- Step   439000 ----- CPU =    410.5845 (sec) ----------------
Time     = 7195000.000000 Temp     = 317.086449 Press    = -116.489881 
PotEng   = -10.094484 KinEng   = 0.943328 Lx       = 24.901552 
Ly       = 24.901552 Lz       = 24.901552 Density  = 0.991931 
---------------- Step   440000 ----- CPU =    411.4994 (sec) ----------------
Time     = 7200000.000000 Temp     = 305.115584 Press    = 893.682161 
PotEng   = -10.085676 KinEng   = 0.907715 Lx       = 24.774137 
Ly       = 24.774137 Lz       = 24.774137 Density  = 1.007314 
---------------- Step   441000 ----- CPU =    412.4138 (sec) ----------------
Time     = 7205000.000000 Temp     = 306.309907 Press    = 172.381904 
PotEng   = -10.010157 KinEng   = 0.911268 Lx       = 24.847993 
Ly       = 24.847993 Lz       = 24.847993 Density  = 0.998359 
---------------- Step   442000 ----- CPU =    413.3298 (sec) ----------------
Time     = 7210000.000000 Temp     = 289.777013 Press    = 758.827735 
PotEng   = -10.073968 KinEng   = 0.862083 Lx       = 24.858388 
Ly       = 24.858388 Lz       = 24.858388 Density  = 0.997107 
---------------- Step   443000 ----- CPU =    414.2649 (sec) ----------------
Time     = 7215000.000000 Temp     = 307.122748 Press    = -800.428577 
PotEng   = -10.074838 KinEng   = 0.913687 Lx       = 24.852801 
Ly       = 24.852801 Lz       = 24.852801 Density  = 0.997779 
---------------- Step   444000 ----- CPU =    415.1676 (sec) ----------------
Time     = 7220000.000000 Temp     = 321.052348 Press    = 675.823205 
PotEng   = -10.124306 KinEng   = 0.955127 Lx       = 24.781499 
Ly       = 24.781499 Lz       = 24.781499 Density  = 1.006417 
---------------- Step   445000 ----- CPU =    416.1097 (sec) ----------------
Time     = 7225000.000000 Temp     = 316.418578 Press    = 890.770568 
PotEng   = -10.030859 KinEng   = 0.941342 Lx       = 24.760657 
Ly       = 24.760657 Lz       = 24.760657 Density  = 1.008960 
---------------- Step   446000 ----- CPU =    417.0580 (sec) ----------------
Time     = 7230000.000000 Temp     = 311.505135 Press    = 798.678154 
PotEng   = -10.052169 KinEng   = 0.926724 Lx       = 24.846414 
Ly       = 24.846414 Lz       = 24.846414 Density  = 0.998549 
---------------- Step   447000 ----- CPU =    417.9779 (sec) ----------------
Time     = 7235000.000000 Temp     = 290.747855 Press    = -100.612455 
PotEng   = -10.070391 KinEng   = 0.864971 Lx       = 24.879108 
Ly       = 24.879108 Lz       = 24.879108 Density  = 0.994618 
---------------- Step   448000 ----- CPU =    418.9056 (sec) ----------------
Time     = 7240000.000000 Temp     = 264.871900 Press    = -369.030823 
PotEng   = -10.076276 KinEng   = 0.787991 Lx       = 24.805139 
Ly       = 24.805139 Lz       = 24.805139 Density  = 1.003542 
---------------- Step   449000 ----- CPU =    419.8523 (sec) ----------------
Time     = 7245000.000000 Temp     = 302.217864 Press    = -267.336502 
PotEng   = -10.076255 KinEng   = 0.899095 Lx       = 24.822451 
Ly       = 24.822451 Lz       = 24.822451 Density  = 1.001444 
---------------- Step   450000 ----- CPU =    420.8186 (sec) ----------------
Time     = 7250000.000000 Temp     = 305.613230 Press    = 948.928832 
PotEng   = -10.091955 KinEng   = 0.909196 Lx       = 24.811701 
Ly       = 24.811701 Lz       = 24.811701 Density  = 1.002746 
---------------- Step   451000 ----- CPU =    421.7378 (sec) ----------------
Time     = 7255000.000000 Temp     = 304.697942 Press    = -402.667681 
PotEng   = -10.071395 KinEng   = 0.906473 Lx       = 24.963665 
Ly       = 24.963665 Lz       = 24.963665 Density  = 0.984545 
---------------- Step   452000 ----- CPU =    422.6633 (sec) ----------------
Time     = 7260000.000000 Temp     = 291.088663 Press    = -17.489093 
PotEng   = -10.025887 KinEng   = 0.865985 Lx       = 24.811204 
Ly       = 24.811204 Lz       = 24.811204 Density  = 1.002806 
---------------- Step   453000 ----- CPU =    423.6114 (sec) ----------------
Time     = 7265000.000000 Temp     = 295.344431 Press    = -288.985360 
PotEng   = -9.949959 KinEng   = 0.878646 Lx       = 24.939435 
Ly       = 24.939435 Lz       = 24.939435 Density  = 0.987417 
---------------- Step   454000 ----- CPU =    424.5330 (sec) ----------------
Time     = 7270000.000000 Temp     = 295.107790 Press    = 114.123465 
PotEng   = -10.093165 KinEng   = 0.877942 Lx       = 24.844082 
Ly       = 24.844082 Lz       = 24.844082 Density  = 0.998830 
---------------- Step   455000 ----- CPU =    425.4489 (sec) ----------------
Time     = 7275000.000000 Temp     = 282.543103 Press    = 268.831236 
PotEng   = -10.055779 KinEng   = 0.840562 Lx       = 24.889299 
Ly       = 24.889299 Lz       = 24.889299 Density  = 0.993396 
---------------- Step   456000 ----- CPU =    426.3713 (sec) ----------------
Time     = 7280000.000000 Temp     = 299.819803 Press    = 139.680340 
PotEng   = -10.111904 KinEng   = 0.891960 Lx       = 24.823709 
Ly       = 24.823709 Lz       = 24.823709 Density  = 1.001291 
---------------- Step   457000 ----- CPU =    427.2956 (sec) ----------------
Time     = 7285000.000000 Temp     = 282.079451 Press    = -1925.848331 
PotEng   = -10.089828 KinEng   = 0.839183 Lx       = 24.955135 
Ly       = 24.955135 Lz       = 24.955135 Density  = 0.985555 
---------------- Step   458000 ----- CPU =    428.2375 (sec) ----------------
Time     = 7290000.000000 Temp     = 284.009930 Press    = 1182.319429 
PotEng   = -10.041933 KinEng   = 0.844926 Lx       = 24.806906 
Ly       = 24.806906 Lz       = 24.806906 Density  = 1.003327 
---------------- Step   459000 ----- CPU =    429.1691 (sec) ----------------
Time     = 7295000.000000 Temp     = 322.198881 Press    = 17.126005 
PotEng   = -10.123668 KinEng   = 0.958538 Lx       = 24.870142 
Ly       = 24.870142 Lz       = 24.870142 Density  = 0.995694 
---------------- Step   460000 ----- CPU =    430.0947 (sec) ----------------
Time     = 7300000.000000 Temp     = 302.733917 Press    = -352.456831 
PotEng   = -10.115065 KinEng   = 0.900630 Lx       = 24.874587 
Ly       = 24.874587 Lz       = 24.874587 Density  = 0.995160 
---------------- Step   461000 ----- CPU =    431.0179 (sec) ----------------
Time     = 7305000.000000 Temp     = 296.462012 Press    = -184.274866 
PotEng   = -10.108133 KinEng   = 0.881971 Lx       = 24.812157 
Ly       = 24.812157 Lz       = 24.812157 Density  = 1.002691 
---------------- Step   462000 ----- CPU =    431.9620 (sec) ----------------
Time     = 7310000.000000 Temp     = 305.093572 Press    = 193.667903 
PotEng   = -10.116596 KinEng   = 0.907650 Lx       = 24.864974 
Ly       = 24.864974 Lz       = 24.864974 Density  = 0.996315 
---------------- Step   463000 ----- CPU =    432.8844 (sec) ----------------
Time     = 7315000.000000 Temp     = 301.626143 Press    = 715.933036 
PotEng   = -10.104700 KinEng   = 0.897334 Lx       = 24.819494 
Ly       = 24.819494 Lz       = 24.819494 Density  = 1.001802 
---------------- Step   464000 ----- CPU =    433.8096 (sec) ----------------
Time     = 7320000.000000 Temp     = 309.955331 Press    = 872.435903 
PotEng   = -10.075258 KinEng   = 0.922113 Lx       = 24.828948 
Ly       = 24.828948 Lz       = 24.828948 Density  = 1.000658 
---------------- Step   465000 ----- CPU =    434.7437 (sec) ----------------
Time     = 7325000.000000 Temp     = 291.381483 Press    = 164.174769 
PotEng   = -10.087167 KinEng   = 0.866856 Lx       = 24.970175 
Ly       = 24.970175 Lz       = 24.970175 Density  = 0.983775 
---------------- Step   466000 ----- CPU =    435.6701 (sec) ----------------
Time     = 7330000.000000 Temp     = 306.764550 Press    = 1723.506984 
PotEng   = -10.013510 KinEng   = 0.912621 Lx       = 24.752822 
Ly       = 24.752822 Lz       = 24.752822 Density  = 1.009919 
---------------- Step   467000 ----- CPU =    436.6175 (sec) ----------------
Time     = 7335000.000000 Temp     = 322.559508 Press    = -161.862911 
PotEng   = -10.080369 KinEng   = 0.959611 Lx       = 24.927490 
Ly       = 24.927490 Lz       = 24.927490 Density  = 0.988837 
---------------- Step   468000 ----- CPU =    437.5409 (sec) ----------------
Time     = 7340000.000000 Temp     = 293.479272 Press    = 555.118608 
PotEng   = -10.052032 KinEng   = 0.873097 Lx       = 24.940904 
Ly       = 24.940904 Lz       = 24.940904 Density  = 0.987243 
---------------- Step   469000 ----- CPU =    438.4680 (sec) ----------------
Time     = 7345000.000000 Temp     = 303.853574 Press    = -744.862889 
PotEng   = -10.054698 KinEng   = 0.903961 Lx       = 24.909248 
Ly       = 24.909248 Lz       = 24.909248 Density  = 0.991011 
---------------- Step   470000 ----- CPU =    439.3952 (sec) ----------------
Time     = 7350000.000000 Temp     = 318.618044 Press    = -299.574422 
PotEng   = -10.071873 KinEng   = 0.947885 Lx       = 24.811769 
Ly       = 24.811769 Lz       = 24.811769 Density  = 1.002738 
---------------- Step   471000 ----- CPU =    440.3323 (sec) ----------------
Time     = 7355000.000000 Temp     = 291.058004 Press    = 1389.533849 
PotEng   = -10.086373 KinEng   = 0.865894 Lx       = 24.833712 
Ly       = 24.833712 Lz       = 24.833712 Density  = 1.000082 
---------------- Step   472000 ----- CPU =    441.2596 (sec) ----------------
Time     = 7360000.000000 Temp     = 293.320593 Press    = -1549.928529 
PotEng   = -10.141577 KinEng   = 0.872625 Lx       = 24.848438 
Ly       = 24.848438 Lz       = 24.848438 Density  = 0.998305 
---------------- Step   473000 ----- CPU =    442.1888 (sec) ----------------
Time     = 7365000.000000 Temp     = 296.828128 Press    = -449.263382 
PotEng   = -10.077854 KinEng   = 0.883060 Lx       = 24.981339 
Ly       = 24.981339 Lz       = 24.981339 Density  = 0.982457 
---------------- Step   474000 ----- CPU =    443.1251 (sec) ----------------
Time     = 7370000.000000 Temp     = 278.155612 Press    = -440.915673 
PotEng   = -10.077284 KinEng   = 0.827510 Lx       = 24.820931 
Ly       = 24.820931 Lz       = 24.820931 Density  = 1.001628 
---------------- Step   475000 ----- CPU =    444.0622 (sec) ----------------
Time     = 7375000.000000 Temp     = 317.032699 Press    = -154.780915 
PotEng   = -10.103670 KinEng   = 0.943169 Lx       = 24.862090 
Ly       = 24.862090 Lz       = 24.862090 Density  = 0.996661 
---------------- Step   476000 ----- CPU =    444.9970 (sec) ----------------
Time     = 7380000.000000 Temp     = 291.370620 Press    = 379.308833 
PotEng   = -10.065719 KinEng   = 0.866824 Lx       = 24.942235 
Ly       = 24.942235 Lz       = 24.942235 Density  = 0.987085 
---------------- Step   477000 ----- CPU =    445.9072 (sec) ----------------
Time     = 7385000.000000 Temp     = 321.323201 Press    = -59.815217 
PotEng   = -10.044709 KinEng   = 0.955933 Lx       = 24.903140 
Ly       = 24.903140 Lz       = 24.903140 Density  = 0.991741 
---------------- Step   478000 ----- CPU =    446.8252 (sec) ----------------
Time     = 7390000.000000 Temp     = 286.277111 Press    = -1105.068796 
PotEng   = -10.097285 KinEng   = 0.851671 Lx       = 24.973246 
Ly       = 24.973246 Lz       = 24.973246 Density  = 0.983412 
---------------- Step   479000 ----- CPU =    447.7625 (sec) ----------------
Time     = 7395000.000000 Temp     = 297.347858 Press    = 449.606757 
PotEng   = -10.117750 KinEng   = 0.884606 Lx       = 24.767688 
Ly       = 24.767688 Lz       = 24.767688 Density  = 1.008101 
---------------- Step   480000 ----- CPU =    448.6976 (sec) ----------------
Time     = 7400000.000000 Temp     = 275.792331 Press    = -1522.803377 
PotEng   = -10.163626 KinEng   = 0.820479 Lx       = 24.883422 
Ly       = 24.883422 Lz       = 24.883422 Density  = 0.994100 
---------------- Step   481000 ----- CPU =    449.6246 (sec) ----------------
Time     = 7405000.000000 Temp     = 314.965711 Press    = 1114.289167 
PotEng   = -10.053615 KinEng   = 0.937019 Lx       = 24.813419 
Ly       = 24.813419 Lz       = 24.813419 Density  = 1.002538 
---------------- Step   482000 ----- CPU =    450.5349 (sec) ----------------
Time     = 7410000.000000 Temp     = 275.737724 Press    = -584.037543 
PotEng   = -10.097003 KinEng   = 0.820316 Lx       = 24.935006 
Ly       = 24.935006 Lz       = 24.935006 Density  = 0.987944 
---------------- Step   483000 ----- CPU =    451.4718 (sec) ----------------
Time     = 7415000.000000 Temp     = 303.916585 Press    = 613.152412 
PotEng   = -10.168449 KinEng   = 0.904148 Lx       = 24.775096 
Ly       = 24.775096 Lz       = 24.775096 Density  = 1.007197 
---------------- Step   484000 ----- CPU =    452.3910 (sec) ----------------
Time     = 7420000.000000 Temp     = 313.033201 Press    = 1655.955404 
PotEng   = -10.051501 KinEng   = 0.931270 Lx       = 24.892345 
Ly       = 24.892345 Lz       = 24.892345 Density  = 0.993032 
---------------- Step   485000 ----- CPU =    453.3084 (sec) ----------------
Time     = 7425000.000000 Temp     = 289.765799 Press    = 351.594902 
PotEng   = -10.037163 KinEng   = 0.862050 Lx       = 24.801510 
Ly       = 24.801510 Lz       = 24.801510 Density  = 1.003982 
---------------- Step   486000 ----- CPU =    454.2397 (sec) ----------------
Time     = 7430000.000000 Temp     = 280.079233 Press    = 202.078848 
PotEng   = -10.088928 KinEng   = 0.833232 Lx       = 24.790135 
Ly       = 24.790135 Lz       = 24.790135 Density  = 1.005365 
---------------- Step   487000 ----- CPU =    455.1862 (sec) ----------------
Time     = 7435000.000000 Temp     = 292.752245 Press    = 434.906600 
PotEng   = -10.086865 KinEng   = 0.870934 Lx       = 24.741053 
Ly       = 24.741053 Lz       = 24.741053 Density  = 1.011360 
---------------- Step   488000 ----- CPU =    456.1265 (sec) ----------------
Time     = 7440000.000000 Temp     = 289.236274 Press    = 883.201786 
PotEng   = -10.036772 KinEng   = 0.860474 Lx       = 24.747936 
Ly       = 24.747936 Lz       = 24.747936 Density  = 1.010517 
---------------- Step   489000 ----- CPU =    457.0741 (sec) ----------------
Time     = 7445000.000000 Temp     = 302.993693 Press    = -187.387563 
PotEng   = -10.014743 KinEng   = 0.901403 Lx       = 24.890915 
Ly       = 24.890915 Lz       = 24.890915 Density  = 0.993203 
---------------- Step   490000 ----- CPU =    458.0091 (sec) ----------------
Time     = 7450000.000000 Temp     = 321.013472 Press    = -708.301538 
PotEng   = -10.057901 KinEng   = 0.955011 Lx       = 25.063499 
Ly       = 25.063499 Lz       = 25.063499 Density  = 0.972827 
---------------- Step   491000 ----- CPU =    458.9234 (sec) ----------------
Time     = 7455000.000000 Temp     = 303.252123 Press    = 900.391428 
PotEng   = -10.085645 KinEng   = 0.902171 Lx       = 24.813607 
Ly       = 24.813607 Lz       = 24.813607 Density  = 1.002515 
---------------- Step   492000 ----- CPU =    459.8715 (sec) ----------------
Time     = 7460000.000000 Temp     = 305.632298 Press    = -515.705804 
PotEng   = -10.076517 KinEng   = 0.909252 Lx       = 24.857168 
Ly       = 24.857168 Lz       = 24.857168 Density  = 0.997254 
---------------- Step   493000 ----- CPU =    460.8120 (sec) ----------------
Time     = 7465000.000000 Temp     = 298.892022 Press    = 200.617875 
PotEng   = -10.071325 KinEng   = 0.889200 Lx       = 24.783698 
Ly       = 24.783698 Lz       = 24.783698 Density  = 1.006149 
---------------- Step   494000 ----- CPU =    461.7675 (sec) ----------------
Time     = 7470000.000000 Temp     = 309.563506 Press    = 467.452857 
PotEng   = -9.976495 KinEng   = 0.920948 Lx       = 24.839044 
Ly       = 24.839044 Lz       = 24.839044 Density  = 0.999438 
---------------- Step   495000 ----- CPU =    462.6793 (sec) ----------------
Time     = 7475000.000000 Temp     = 297.363084 Press    = -314.390385 
PotEng   = -10.067235 KinEng   = 0.884652 Lx       = 24.908811 
Ly       = 24.908811 Lz       = 24.908811 Density  = 0.991064 
---------------- Step   496000 ----- CPU =    463.6159 (sec) ----------------
Time     = 7480000.000000 Temp     = 313.435863 Press    = 589.140659 
PotEng   = -10.061429 KinEng   = 0.932468 Lx       = 24.855634 
Ly       = 24.855634 Lz       = 24.855634 Density  = 0.997438 
---------------- Step   497000 ----- CPU =    464.5338 (sec) ----------------
Time     = 7485000.000000 Temp     = 298.769351 Press    = 967.677582 
PotEng   = -10.086349 KinEng   = 0.888835 Lx       = 24.835048 
Ly       = 24.835048 Lz       = 24.835048 Density  = 0.999921 
---------------- Step   498000 ----- CPU =    465.4705 (sec) ----------------
Time     = 7490000.000000 Temp     = 295.388612 Press    = 288.039914 
PotEng   = -10.017177 KinEng   = 0.878778 Lx       = 24.755027 
Ly       = 24.755027 Lz       = 24.755027 Density  = 1.009649 
---------------- Step   499000 ----- CPU =    466.3990 (sec) ----------------
Time     = 7495000.000000 Temp     = 288.110464 Press    = -831.308496 
PotEng   = -10.112448 KinEng   = 0.857125 Lx       = 24.977793 
Ly       = 24.977793 Lz       = 24.977793 Density  = 0.982875 
---------------- Step   500000 ----- CPU =    467.3186 (sec) ----------------
Time     = 7500000.000000 Temp     = 291.002941 Press    = -738.577344 
PotEng   = -10.089806 KinEng   = 0.865730 Lx       = 24.869393 
Ly       = 24.869393 Lz       = 24.869393 Density  = 0.995784 
Loop time of 467.319 on 4 procs for 500000 steps with 512 atoms

Performance: 462.211 ns/day, 0.052 hours/ns, 1069.933 timesteps/s
96.9% CPU use with 4 MPI tasks x no OpenMP threads

MPI task timing breakdown:
Section |  min time  |  avg time  |  max time  |%varavg| %total
---------------------------------------------------------------
Pair    | 367.96     | 393.38     | 417.67     | 121.9 | 84.18
Neigh   | 12.739     | 13.626     | 14.445     |  22.2 |  2.92
Comm    | 25.662     | 50.97      | 77.537     | 352.0 | 10.91
Output  | 0.32502    | 0.34363    | 0.39941    |   5.5 |  0.07
Modify  | 6.9644     | 7.3358     | 7.6406     |  10.0 |  1.57
Other   |            | 1.664      |            |       |  0.36

Nlocal:    128 ave 131 max 126 min
Histogram: 1 0 1 0 1 0 0 0 0 1
Nghost:    658.5 ave 660 max 657 min
Histogram: 1 0 0 1 0 0 1 0 0 1
Neighs:    0 ave 0 max 0 min
Histogram: 4 0 0 0 0 0 0 0 0 0
FullNghs:  4323.5 ave 4454 max 4209 min
Histogram: 1 0 1 0 0 0 1 0 0 1

Total # of neighbors = 17294
Ave neighs/atom = 33.7773
Neighbor list builds = 33041
Dangerous builds = 0
System init for write_data ...
Total wall time: 0:23:33
