LAMMPS data file via write_data, version 4 Jan 2019, timestep = 5000000

512 atoms
1 atom types

6.0379560579063352e-02 2.4774620439424510e+01 xlo xhi
6.0379560579063352e-02 2.4774620439424510e+01 ylo yhi
6.0379560579063352e-02 2.4774620439424510e+01 zlo zhi

Masses

1 18.0153

Atoms # atomic

399 1 1.3685330203044648e+01 9.8442408336561851e+00 5.1768060403790610e+00 23 59 -35
361 1 1.8790214901360356e+00 1.0359348808432699e+01 6.8526948235290241e+00 -55 110 -18
345 1 2.0711714419450217e+01 3.8481309343928478e+00 1.8954782542726079e+00 80 141 -19
313 1 1.0506576153726627e+01 1.0204893458721593e+00 3.8487526042903357e+00 -42 45 29
200 1 6.5651419499090036e+00 2.3953793580458114e+00 4.4477700137159939e+00 64 94 -16
103 1 2.2244885120307735e+01 7.9652669051949221e-01 6.7580412169704855e+00 -30 39 -56
58 1 1.5152227412181587e+01 8.4060272159778879e+00 2.7902566695946343e+00 1 -8 -7
284 1 1.6233351541079976e+01 1.1988375476318545e+01 2.1017525736271132e+00 -94 -68 -17
115 1 8.5534790130711862e+00 4.0993953656982471e+00 5.7009142539298612e+00 79 -153 25
141 1 2.4170636011018850e+01 3.5368358917999161e+00 1.1699507866974153e+00 101 69 3
388 1 6.0426077802409504e+00 1.1816024848957094e+01 7.5073145198562577e-02 69 6 36
493 1 1.0273049529438525e+01 3.2529498916696236e+00 2.6043054169773296e+00 -39 86 35
477 1 3.2856908483882452e+00 5.8019180470088996e+00 3.3240628301305795e+00 38 -3 34
120 1 3.8783411356962079e+00 1.7125363225412475e+00 1.1213047961434781e+00 9 -62 70
144 1 1.8735600427226736e+01 6.6596815630784363e+00 6.2862841095651314e+00 -28 26 49
191 1 1.3747376479829907e+01 1.0622882124394376e+01 2.0384116498441056e+00 47 -16 -18
281 1 2.2809022095342982e+01 1.1704917542786301e+01 6.9337236915148956e+00 26 -27 113
129 1 1.4318523076664345e+01 1.2910093524292217e+00 1.7924037032408400e+00 -46 -33 -79
505 1 2.1009711965891682e+01 7.7458892979278700e+00 7.8311708771225437e+00 0 29 -46
492 1 9.7175445502178217e+00 1.0343788950738398e+01 1.2787343840462373e+00 -6 -16 49
368 1 9.2547670044108248e+00 9.7836095384621213e+00 4.8702786500527147e+00 44 -31 57
423 1 2.3113900183552524e+01 7.8863818344956984e+00 6.2548685039537570e+00 -15 5 60
383 1 1.0433446257487967e+01 1.1343956678113656e+01 6.9945945897206006e+00 -45 82 -21
483 1 2.0968126067357289e+01 1.1783806215960603e+01 1.9762401187489640e+00 36 70 15
309 1 5.1480837314570822e+00 3.3150820646170307e+00 2.3812326663880268e+00 64 56 -47
29 1 1.2016405431049746e+01 4.0154805951416535e+00 5.8787093335891250e+00 67 -28 -26
65 1 3.9477077937423037e+00 6.2887173708292687e+00 6.1001617422244507e+00 -32 73 -9
175 1 1.1958599839666055e+01 8.8794823803229619e+00 7.9577616337777890e+00 46 17 -19
298 1 3.8981473665107753e+00 9.2840107536169825e+00 3.0198462109597961e+00 3 37 11
54 1 1.9992879439433437e+01 1.0884228389688028e+01 4.5106450249058110e+00 -1 3 53
256 1 1.8886053034630024e+01 3.0618359616603752e-01 3.7165462586376838e+00 34 26 -44
353 1 2.1817037389917431e+01 3.6861453093964096e+00 5.8362876156827337e+00 -168 61 95
178 1 1.2327860824038620e+01 3.0487346898332168e+00 7.2308505616984731e-01 53 33 -56
454 1 5.7216992530596471e+00 1.0560672654528537e+01 6.1733970325694516e+00 -44 48 15
376 1 1.0968311757032336e+00 3.9509123493866212e+00 3.5144032349758629e+00 -79 1 -7
436 1 5.9962403648392704e-01 1.0071236989560353e+01 2.6787372064118244e+00 49 82 19
142 1 7.8300110490932315e+00 1.1170111897880949e-01 4.2393385587604939e+00 31 12 52
234 1 1.8981397499244466e+01 3.7931579207331527e+00 6.3110120533168059e+00 74 -16 30
273 1 2.3275914276552911e+01 5.2948302144629054e+00 4.3692325128952447e+00 86 179 128
170 1 9.3721201402858600e+00 7.6688354430100016e+00 1.0399196378641471e+00 8 35 -11
261 1 1.8575800518123053e+01 1.1201433634377134e+01 7.6339648716001929e-01 16 26 -115
109 1 1.9770499471781108e+01 8.0161422441490533e+00 4.2248008460631219e+00 -91 -37 -54
292 1 8.2935435897809189e+00 7.7207627547482476e+00 7.0450768116953890e+00 -10 35 70
189 1 1.2359466167205291e+01 5.7421275684072732e+00 7.7297082916360784e+00 110 -45 -44
426 1 1.3928973607107984e+01 1.2342587640842780e+01 7.2103097500346029e+00 95 -10 64
216 1 8.9260652885073055e-01 7.3683295412134813e+00 2.5502688968056364e+00 -30 0 167
498 1 1.4905647593791466e+01 7.0510099624568845e+00 6.7649482901993716e+00 44 15 -1
418 1 1.6298067106955145e+01 1.1290262560110627e+01 7.2388300952668994e+00 -83 -69 -23
461 1 2.3927790412932254e+01 1.0066279324768281e+01 5.1930001057551394e+00 19 28 -6
279 1 6.6035609141547669e+00 1.0317407798301105e+01 2.7508914050196980e+00 -33 159 51
458 1 1.8431933469680018e+01 3.4668539273353920e+00 3.4733893109253242e+00 -33 37 -1
46 1 1.7501073806841852e+01 1.0346801364356481e-01 1.3782631065617119e+00 39 -7 55
169 1 1.1410071244281113e+01 1.1210387245528535e+01 3.4124590476858958e+00 -1 25 -1
136 1 1.6040040849753712e+01 4.7351461517203823e+00 7.3664442962153540e+00 37 -58 124
148 1 2.1251314131326595e+01 1.5060432910659467e+00 4.0213768715784468e+00 -42 51 82
174 1 2.2339549399462605e+01 7.3183500740382383e+00 3.0069210127724388e+00 11 85 -18
294 1 2.6627754700325323e+00 3.4050307788174821e+00 6.3807874776334375e+00 17 33 -78
336 1 3.7227432224284942e+00 8.9270363499769854e+00 5.6322287401852176e+00 43 -4 -126
154 1 1.4461564610208468e+01 3.3207063065940203e+00 5.5968642789825367e+00 89 -38 -2
267 1 2.2634770926542579e+01 9.4775970298753709e+00 1.1668234406109863e+00 -95 55 -56
330 1 1.8090010653210733e+01 6.6659126404098670e+00 2.6218288607645790e-01 -2 29 28
177 1 1.1122965513238585e+01 7.6176315200104652e+00 5.2994079534932439e+00 -17 -36 40
238 1 1.3803649553821334e+01 6.1005699696956288e+00 2.0967093399988896e+00 48 9 -23
433 1 2.0224998015716096e+01 1.2061994849213411e+01 7.1491417417044580e+00 34 -44 -41
130 1 2.4691497424747993e+01 3.3460927036938872e+00 7.1350843234456027e+00 -18 -42 8
40 1 1.0689255350798772e+01 1.7886511041179383e+00 6.3523658983864353e+00 10 45 61
12 1 5.4370219699765379e+00 6.4439980361642517e+00 1.2377025263306221e+00 47 -40 64
432 1 2.4645355134410298e+00 1.4163706345527007e+00 3.5920887272451614e+00 35 -53 3
349 1 1.1529433962913885e+01 5.5883270760331536e+00 3.3725186683213435e+00 -2 23 47
214 1 1.7224330175626314e+01 1.1892586671617733e+00 5.9755703687743917e+00 30 110 -8
34 1 1.5489915627259924e+01 3.8403845772205916e+00 2.8922264478057462e+00 -122 -16 129
510 1 7.7985795652296170e+00 2.9755467515262994e+00 1.1370000243438410e+00 -67 143 44
509 1 2.0870071476400817e+01 6.3627636853251115e+00 5.9935199884244705e-01 110 42 -67
360 1 7.3053856699604758e+00 7.5237973663330910e+00 3.3823965498430475e+00 -83 -26 72
167 1 1.7852465764352218e+01 8.4997358552053139e+00 2.1232836844540861e+00 23 -17 12
226 1 1.7072362938837578e+01 8.2361469040263042e+00 7.9861784489376317e+00 6 3 0
253 1 6.5025458459772638e+00 6.1766456023428100e+00 5.5607012820225705e+00 2 10 -12
462 1 4.2889393870345804e+00 1.3041568565721060e+00 5.9690706146791923e+00 -70 8 38
81 1 1.6564256125098126e+01 4.3912351309330111e+00 4.8777975806016644e-01 57 94 -23
362 1 3.2559054005763616e-01 5.1250282768121724e-01 7.2330724467765011e+00 -61 -15 -58
428 1 2.3707779894808667e+01 1.0743254861584988e+00 2.5311587227627057e+00 73 -3 -14
299 1 1.7309833912961970e+01 1.1824074956776366e+01 4.9468746537641950e+00 42 27 72
332 1 1.4023127677823966e+01 5.2964374661620361e-01 5.8785434388237263e+00 19 -14 -107
377 1 3.6621914112141496e-01 6.5545341495382372e+00 4.6995302832042335e-01 8 20 -109
344 1 1.0990715405940739e+01 1.9086761917754244e-01 3.5275441614875841e-01 42 -36 9
451 1 3.4273400909547656e+00 4.3732057409216063e+00 1.6260732677402402e+01 73 32 -15
277 1 1.0518723970010816e+01 1.0184612393152728e+01 1.5875123747645254e+01 34 11 114
507 1 2.1054115393613010e+01 1.8866092201865561e+00 9.7183512284817546e+00 -62 21 -33
204 1 6.8182476744525733e+00 9.9793026002178298e+00 8.4672849474218879e+00 23 -24 -191
113 1 1.9812375205969303e+01 5.8595036477726579e+00 9.3546328694007386e+00 -48 21 93
441 1 7.5074705639427979e+00 8.9749261014349224e-01 1.1405123431398559e+01 3 -53 -19
326 1 2.4321143562650079e+01 5.9881468865526939e+00 9.6265354404004082e+00 34 112 -8
439 1 1.0218935179248078e+01 6.4148615340012212e+00 1.1333825309842585e+01 22 -42 -80
457 1 1.8786492590521448e+01 9.1367330895323420e+00 1.2890083652360728e+01 -14 -44 58
111 1 6.4027326126834057e+00 5.9942244377621892e+00 1.0281724753757477e+01 0 48 82
407 1 1.5001876492870865e+01 8.5872405587084177e+00 1.4435320501457765e+01 18 2 66
250 1 1.2100578890615912e+01 1.2388887143681488e+01 1.2110831433434573e+01 -23 18 161
481 1 1.8505354609805053e+01 2.0372130047882049e+00 1.4528268570074742e+01 32 -13 -24
401 1 1.0574698708510471e+01 4.0369883653507781e+00 1.6142540384621960e+01 35 -1 25
199 1 1.4490826512577851e+01 3.4204919868041217e+00 1.3980611743866387e+01 24 76 -24
440 1 1.6926030748780043e+01 6.8807358249875357e+00 1.3285035298393060e+01 -25 -37 112
499 1 1.5260309261690944e+01 1.4553663576017351e+00 1.1884602743679187e+01 39 -13 -70
259 1 3.6562930795842865e+00 3.2226058932631445e+00 1.2168006703162769e+01 -3 52 30
38 1 2.2243382216122406e+01 4.3954158397009770e+00 8.7710887816578005e+00 -14 67 -20
198 1 1.9982261815106732e+01 9.9827647603373002e+00 8.8858121865949773e+00 -38 36 9
11 1 1.9084232158187884e+00 9.2250006747329714e+00 9.7257212708004772e+00 23 70 -56
346 1 1.7297239805628635e+01 4.0306437075928336e+00 1.3061672507292903e+01 47 22 -131
455 1 8.6274041171092186e+00 5.8455906071831736e+00 9.0536282911220152e+00 51 93 27
343 1 8.7832912389927937e+00 1.1230702916742249e+01 8.9634776451879663e+00 -63 7 153
48 1 2.0057975424796666e+01 5.2163149482336690e+00 1.3199617941139376e+01 -2 -10 34
285 1 4.9835868683507103e+00 1.0535624227419865e+01 1.4478942599298440e+01 -25 95 3
308 1 1.7622673152577327e+01 4.2676714654975303e+00 1.0302535478682255e+01 40 112 49
203 1 1.2811695676360239e+01 4.1768658320076266e+00 1.0090119009868724e+01 104 -104 78
317 1 4.7115123623702306e+00 2.1252751654489042e+00 1.4718231462653117e+01 112 -22 -28
335 1 2.3227952900590900e+01 8.2434818111523234e-01 1.1419691500443314e+01 18 -22 80
478 1 7.5806810280041903e-01 2.7271965860909400e+00 1.3261260262232019e+01 24 -14 42
244 1 2.0199417954387947e+01 7.2803174081657245e+00 1.1482090786115277e+01 -49 61 18
367 1 1.5524152948808062e+01 6.5016411797783809e+00 1.0172802074324121e+01 3 5 62
268 1 2.1248401444934366e+01 1.0768229336952189e+01 1.2546102569130705e+01 -129 -6 -13
118 1 1.3138475551301294e+01 1.1171947100071364e+01 1.4903897684043480e+01 -33 130 -90
351 1 1.5029710571879281e+01 1.0709180847910430e+01 1.2155384955290311e+01 22 -21 -62
476 1 4.4892945252754322e+00 1.1005280461178076e+01 9.9562124193872190e+00 -31 -23 -44
33 1 1.7536732492342331e+01 1.0373621918609775e+01 1.0482409158710302e+01 -98 -44 -20
469 1 1.3702597804194173e+01 6.9252624079923244e+00 1.2424871409361321e+01 36 25 33
223 1 2.2965608627131537e+01 8.3304060632975911e+00 1.0254099511154781e+01 113 34 11
211 1 1.6113332019910757e+01 9.1355839150319795e-01 1.5562230728864694e+01 -40 16 -15
114 1 9.9517863419746071e+00 1.0905788460835076e+01 1.1134206233175101e+01 -24 13 -23
171 1 9.3807752424079087e+00 6.0330716790084589e+00 1.3754423708809284e+01 -22 40 13
495 1 3.9968560016816030e+00 2.5075418357646297e+00 9.6814657701300000e+00 -28 9 -59
131 1 4.3143838514470438e+00 9.2334687379330080e-02 1.2710839956221315e+01 7 -31 -17
165 1 2.2466287459905567e+00 6.4707405067736774e+00 1.0013981752267872e+01 110 -14 103
76 1 1.0783418496125394e+01 2.3142140854082260e+00 1.0609394369526173e+01 25 24 10
187 1 2.0386648152321887e+00 6.9353605334166402e-01 9.5625403325428646e+00 -4 19 -16
319 1 5.5015671243303279e+00 6.2835654664194358e+00 1.4598954282400017e+01 -35 5 49
21 1 3.4220413794704139e+00 6.2379339097526643e+00 1.2576270828858773e+01 11 -11 -127
427 1 2.4439951523381183e+01 1.0683327035897396e+01 8.9782552432759228e+00 119 -7 24
222 1 1.7714859827673337e+01 9.9402982966736673e+00 1.5512012198903554e+01 28 55 46
350 1 1.4464053305185267e+01 9.6166040439401108e+00 9.5183171590737352e+00 31 -7 37
246 1 4.0671488799372535e-01 2.7304438436733798e+00 1.0456361029232410e+01 77 61 110
227 1 1.0885867453935813e+01 1.9347165827718824e+00 1.3621871737564936e+01 124 97 -1
232 1 1.3262914689794245e+01 3.6744873472995782e-01 1.3830711810183990e+01 101 37 38
488 1 2.1361839232718268e+01 3.0932665112480064e+00 1.6158804233726102e+01 -27 -10 12
342 1 1.4795331040735686e+01 2.5741592995896556e+00 9.3379008297628907e+00 28 -14 18
491 1 6.5735652535625899e+00 1.6073606687686306e+00 8.8683104609664731e+00 -31 -29 -27
371 1 2.2332466425450114e+01 3.8839342741340084e+00 1.2489496161488281e+01 -79 32 -65
190 1 1.6990763694507258e+01 1.2319742054650643e+01 1.3708668030394794e+01 97 86 25
176 1 2.3692381916223884e+00 8.7920560111614794e+00 1.5268657758711955e+01 -104 -100 -28
64 1 2.4615462048537019e+01 8.8214888933511197e+00 1.2546585084889276e+01 -43 68 19
194 1 7.1777168850398345e+00 4.7630951840675655e+00 1.3127617973025867e+01 52 113 11
99 1 7.8071904424761742e+00 2.3567181484975284e+00 1.3865857074727662e+01 5 -7 40
282 1 2.0151799365550922e+01 5.8895637885291645e+00 1.5739383194993502e+01 31 42 70
71 1 5.3380476390820899e+00 8.5272978734336213e+00 1.1262464210841733e+01 63 -61 -60
408 1 6.9623382458029131e+00 9.8070461074732602e+00 1.3105713377054549e+01 -132 32 50
18 1 5.0998492202198644e+00 8.2727975360321722e+00 1.6461141284035712e+01 63 67 55
20 1 2.1382949767791764e+01 1.0120540529072324e+00 1.4031624809453380e+01 116 30 31
424 1 2.3123597082206267e+01 1.0067882223424768e+01 1.4492595228857251e+01 34 3 -12
5 1 1.8535496186203225e+01 1.9176874555926466e+00 8.7239168311893884e+00 42 42 -13
228 1 1.2806815848275226e+01 7.8451410493234586e-01 8.3370645187966339e+00 -25 20 15
496 1 8.9028695545914882e+00 8.5224507581493523e+00 1.4519989267160641e+01 -5 -7 17
266 1 2.2502866623493194e+00 9.4000014848919005e+00 1.2402961489050755e+01 22 -60 19
381 1 2.4479930823629708e+01 5.6603386339287054e+00 1.2452933272318289e+01 25 -107 33
380 1 1.2234871952564847e+01 4.6153852789546841e+00 1.2946851577007706e+01 -11 88 63
202 1 1.1665365766161484e+01 8.4748578588693189e+00 1.0932640202460018e+01 32 102 -2
233 1 1.8439292569315169e+00 6.0393279673457112e+00 1.4801291010346704e+01 -18 -28 -41
497 1 6.2618621249773598e-01 2.3613123631392612e+00 1.6493269852763589e+01 4 26 21
473 1 1.7502716441203404e+01 6.6977109183294443e+00 1.6184881294643418e+01 -46 -28 70
97 1 8.9870385529162018e+00 2.9762834619613523e+00 8.4399396860950500e+00 33 66 0
395 1 4.1188311105938595e+00 5.0688408131456804e+00 8.9103987345051365e+00 -32 37 -58
501 1 8.1375165571826109e+00 1.2414976185794510e+01 1.2670809422139325e+01 34 -28 -2
503 1 1.3845511939842188e+01 4.3221956160515287e+00 1.6487792024219118e+01 -7 2 17
8 1 2.4037956013845130e+00 2.3017457222608577e+00 1.9164048462127838e+01 -35 23 -24
179 1 7.5237533434554260e+00 9.1331895120591593e+00 1.7382603281100948e+01 -72 -63 -55
389 1 4.2965286633763036e+00 1.0163679369798631e+00 1.7204235249512401e+01 11 73 -20
348 1 1.7005803119840074e+01 1.2013634371623215e+01 1.9659648347129774e+01 -6 -26 19
62 1 2.4512984659514188e+01 1.0021321612651510e+00 2.2272328761682999e+01 77 -12 -45
443 1 2.2705657935564332e+01 4.8254612436800075e+00 1.8251708728881290e+01 -103 24 -1
392 1 4.5278261292082558e+00 6.8328371813854707e+00 2.2456176895508086e+01 17 3 -72
210 1 6.9984971564941398e+00 9.1846968863375089e-01 2.0293745504060951e+01 -2 -3 38
446 1 1.1173060433852708e+00 1.0737104555522954e+01 1.9525391955273868e+01 34 35 -21
464 1 4.7939198637532670e+00 3.6081621182764261e+00 2.3171694695307849e+01 4 6 -21
172 1 1.2114974172020794e+01 3.2042070259008000e+00 2.0420570110040416e+01 -29 -105 33
44 1 1.5901258145731809e+01 6.8015937526465384e+00 1.9927916493026054e+01 -24 -26 101
218 1 8.3777190901180241e+00 5.5671175539377860e+00 1.8970134706465437e+01 -49 -5 -21
378 1 2.0789968349520024e+01 9.2114845938267393e+00 2.3425741494030270e+01 10 -3 -66
87 1 3.3168739059164158e+00 1.2393735413003538e+01 2.3442653887007459e+01 -2 30 92
322 1 6.6436465359432360e+00 4.2329508354119607e+00 1.7150738603039777e+01 25 55 -17
108 1 1.5265581836588205e-01 9.8145632900379223e+00 1.6818169759676536e+01 29 -39 25
96 1 1.8827968230596888e+01 1.1173637875758626e+01 1.7584056241498665e+01 247 50 56
52 1 1.3634936577623897e+01 1.0225138937178251e+01 2.4031467980592900e+01 93 -98 130
406 1 1.4553932013624431e+00 2.1449446045417502e+00 2.4389963836012583e+01 52 137 13
138 1 1.1130107573554030e+01 4.1825049342515480e-01 1.9816438423504422e+01 183 44 21
25 1 2.3880279849397894e+00 6.7897365989870506e-01 2.1266120515770446e+01 75 -75 -65
357 1 6.9171845367338776e+00 8.0449032602244070e+00 1.9820559640129368e+01 -3 -19 -14
60 1 4.6440146167786081e+00 9.0453756939948047e+00 2.4682296458604370e+01 -70 -22 59
293 1 8.0301991902484815e+00 1.1268409587044381e+01 1.8511239158409801e+01 22 124 59
209 1 2.1572256227450794e+01 3.8994465274442001e+00 2.2292016707435003e+01 7 19 -33
225 1 5.3015079464452182e+00 5.7906104589980973e+00 2.0172979826271877e+01 13 82 13
300 1 1.1907797727229221e+01 7.3457901308403954e+00 2.4428037571036761e+01 -76 60 27
74 1 1.4578187774276882e+01 5.0183729176814200e+00 2.2990666939630202e+01 5 59 -12
134 1 1.9008060953858340e+01 1.0109671636242643e+01 2.0870987240268228e+01 -81 -15 22
77 1 1.8505129277516346e+01 5.0847086361341525e+00 2.0440750337846410e+01 55 -29 5
205 1 1.3789470476403858e+01 1.1852786995036704e+01 1.7747965264250368e+01 -36 -7 -62
429 1 2.1506865381722577e+01 9.3423241918629536e+00 1.8915120629157592e+01 -36 -35 39
161 1 2.0128573760826520e+00 4.9248272179319628e+00 2.3230463761790780e+01 37 -32 59
45 1 1.4667216434265727e+01 2.5667706405635080e+00 1.8710225759590237e+01 -4 88 -77
163 1 9.1444468703403050e+00 2.7060076852514450e+00 1.9407730771305410e+01 -36 -65 0
14 1 1.4253994474305724e+01 1.0340243599981196e+01 2.0578823893846227e+01 43 -31 39
363 1 1.5843465548664513e+01 9.2323600994921495e+00 1.8108182235345801e+01 -18 -43 27
219 1 2.3575353889773965e+01 1.1259988547898303e+01 2.0790169311279776e+01 -31 -17 -110
112 1 2.4667750601787354e+01 6.6857414770409820e+00 1.7347044063478251e+01 17 86 -31
35 1 1.4729751331246892e+00 6.9108038377690404e+00 1.9482183989998369e+01 -59 30 -41
486 1 9.4052511381244166e+00 1.9228972045617534e-01 2.2656855719978815e+01 47 22 -28
110 1 9.2613689785019080e+00 7.8137047256755432e+00 2.1139780549526982e+01 23 -32 -34
403 1 2.3460693050745363e+01 3.1693781634724258e+00 2.0827074155584306e+01 -61 53 7
382 1 1.1392629006642759e+01 1.0691650921108035e+01 1.8588612676429243e+01 45 -11 50
53 1 1.5329375252733179e+01 1.2005697742793588e+01 2.2798707799324895e+01 63 104 153
302 1 1.5537530003178736e+01 7.8295806191912218e+00 2.4031307061484974e+01 38 -74 -25
85 1 6.1095161139511767e-01 1.1158096651679614e+01 2.4537500236305100e+01 26 31 -95
90 1 1.2231677862555701e+00 4.4261943044465131e+00 2.0727452163079533e+01 -48 -42 -76
489 1 1.6990553973591908e+01 7.7184801148006799e-01 1.8836976522524779e+01 70 178 -47
121 1 6.5941035329226896e+00 1.0151033343029129e+01 2.2551365705522734e+01 -19 13 4
484 1 9.4610695027226193e+00 6.6577369065473784e+00 1.6958256608776793e+01 -46 -8 95
405 1 9.3719609716588348e+00 3.0922814873852600e+00 2.2460697418640926e+01 -18 10 67
31 1 1.2007936649988729e+01 4.5686147744061900e+00 2.3346291555544269e+01 -49 -29 116
37 1 1.8971739240176383e+01 2.3529699383419849e+00 1.7397504603653580e+01 62 17 -48
140 1 2.2722233884798953e+01 8.4046812753425399e+00 2.1493809028463218e+01 -65 35 -11
338 1 2.1873647116336230e+01 1.1855733605814393e+01 1.6908202759208486e+01 -8 8 37
435 1 9.3873266966373823e+00 1.0408909079226509e+01 2.1276867887311113e+01 -47 -5 -16
474 1 1.9058085355587650e+01 2.7187411918665401e+00 2.1497058470820249e+01 -10 -72 -48
430 1 1.8858149351434840e+01 7.2142888978551580e+00 2.2414070941188513e+01 53 48 10
82 1 1.1621924834577898e+01 7.9210056131236692e+00 1.8328570103042352e+01 -12 5 3
126 1 5.8739725102578411e-01 8.8335850616519949e+00 2.3382928862593339e+01 -18 -29 -36
355 1 1.6371913248344732e+01 8.5351411593778490e+00 2.1706226623975759e+01 -28 -9 60
193 1 3.8460556032541122e+00 6.4301923856335037e+00 1.8185135973594868e+01 -68 20 -3
251 1 1.8490089535632578e+01 1.1602600856764928e+01 2.3040147839603023e+01 -38 33 -50
373 1 2.6043572951378184e+00 8.5289658582144643e+00 2.1343293353234365e+01 58 39 -41
188 1 1.3097440087819560e+01 5.8842243858302501e+00 1.9811711156339157e+01 2 1 66
369 1 1.6970724676368640e+01 4.5185136836459527e+00 1.7904776631362282e+01 -8 71 6
331 1 1.4185855301102592e+01 7.4157753513223543e+00 1.6794998994525024e+01 37 29 -9
24 1 4.9626305806748361e+00 3.0869046130224884e+00 1.9904422118311807e+01 27 -62 77
181 1 2.0720867005150637e+01 6.0696375557378808e+00 1.9735317372930702e+01 88 66 -59
91 1 1.2269246602007414e+01 8.5179686648809056e+00 2.1452867078239841e+01 -23 10 21
456 1 7.3583097159672626e+00 4.7103059252905037e+00 2.3879716363578702e+01 -33 -30 4
217 1 8.7051916863391412e+00 2.1021769377693236e+00 1.6722272775148241e+01 98 -43 81
50 1 2.2652055391427830e+01 6.2866597133696178e+00 2.3378649163572042e+01 9 39 -21
183 1 1.5740199170761935e+01 1.2767357497226688e+00 2.3621116774447536e+01 33 105 21
133 1 2.2945603239912863e+01 1.7766930101175142e+00 1.8288920937880476e+01 -41 75 -46
220 1 7.4151445152354709e+00 5.3951178239064834e-01 2.4692339252322618e+01 46 -2 22
318 1 7.7697723676633146e+00 7.5699929725552533e+00 2.3650817124215607e+01 35 2 155
32 1 1.5964804883745005e+01 3.3199930845550059e+00 2.1241569313384360e+01 -52 109 -45
323 1 4.0225879223926917e+00 1.1083665013665692e+01 2.0913279744940894e+01 18 -120 16
94 1 5.3436199475408994e+00 7.1490147013062721e-01 2.2785844173971448e+01 -64 40 34
196 1 2.1495722749127758e+01 1.9882324529647477e+00 2.4228163490843876e+01 8 28 8
262 1 1.0829037895124024e+01 1.0906429947876939e+01 2.3478365062695019e+01 15 48 -37
328 1 1.8389221739669139e+01 2.3178107841884734e+00 2.4751383796420015e+01 78 77 -19
117 1 2.2052000118220384e+01 7.7955611529695403e+00 1.6654831125576671e+01 52 50 89
66 1 1.9621404910113661e+01 2.0259374651906171e+01 1.6679444932785097e+00 -29 38 -34
354 1 4.2167323039796178e+00 2.3806126132002156e+01 1.4266303177155182e+00 0 48 22
241 1 2.1700757154712463e+01 1.7285511460514847e+01 6.4550149256781895e+00 -2 -123 -33
291 1 5.0561101721607882e-01 2.0338263284098574e+01 6.1223101987019195e+00 25 119 75
152 1 2.2440549636855138e+01 2.1315799547881326e+01 2.2895719830412972e-01 -56 -145 -10
325 1 1.9074808292369326e+01 1.8355567010892763e+01 3.5746367817496632e+00 -73 27 24
508 1 1.6155664339618828e-01 2.2165367220217007e+01 3.9304408762259695e+00 -3 26 -55
315 1 7.8453330346642662e+00 1.5672947383641876e+01 1.1486700542756598e+00 -72 103 87
275 1 6.9579114358133696e+00 1.8055240254490059e+01 5.4832504315992630e+00 20 -13 36
471 1 1.3166177674025551e+01 2.1047304863011476e+01 4.5374037823987310e+00 -91 -21 22
263 1 3.2003932870433514e+00 1.9682442172019606e+01 1.9992941845709498e+00 33 144 2
185 1 7.2796287696489770e-01 1.2699936259108322e+01 3.5710556947577805e+00 6 13 -15
107 1 1.8857001363747756e+01 1.3955450238134576e+01 2.5619720575495148e+00 -41 60 -128
329 1 2.1449145393965388e+01 1.9941124176899002e+01 4.5995315790300744e+00 8 -119 -68
15 1 1.4233039175231882e+01 1.6960173888046903e+01 7.2345374193919936e+00 6 -3 -137
239 1 1.1057105250412798e+01 1.4042133502103553e+01 2.6264662614981358e+00 47 -26 7
340 1 1.3070661777499266e+01 1.5062917690613180e+01 1.1540499923554750e+00 53 41 21
276 1 3.0974837689371117e+00 2.2626289195850113e+01 3.3408644872200899e+00 29 175 -24
385 1 1.0733691189570576e+01 1.9255027874291052e+01 4.9835781913091184e+00 44 29 48
394 1 1.6907706408520397e+01 2.0835495839774012e+01 1.3073760705397648e+00 -105 4 -9
168 1 4.9198178805019186e+00 1.3289847364552568e+01 2.4262087884636760e+00 85 -62 -65
255 1 1.6275345476647933e+00 1.6201599317851986e+01 6.2604249647817936e+00 -126 4 79
416 1 1.5630172573147147e+01 2.2111886948380764e+01 3.3325054093281565e+00 -15 -30 27
145 1 9.2360488266033851e+00 2.2576338394241063e+01 6.1806273933701084e+00 33 -15 -44
9 1 1.7079752118382217e+01 1.4898103339976434e+01 4.8080465710476235e+00 -41 44 13
272 1 6.3603874452518845e+00 1.8966389545896931e+01 2.3857168166273528e+00 -23 -7 104
39 1 7.4218096489656995e+00 1.4708803325993845e+01 7.0873035665688535e+00 6 36 50
431 1 7.7316346540641838e+00 2.0724718461452845e+01 4.8091078357547028e+00 -64 -28 -19
57 1 2.2104989117497603e+01 2.3056168567790863e+01 5.6397293439940119e+00 -22 -4 35
333 1 2.1992461399942648e-01 1.8175856510097830e+01 4.3976219830076779e+00 11 30 47
289 1 8.3303336034888389e+00 1.7657064375047192e+01 7.9148843702438771e+00 -20 3 -53
86 1 1.0327783420308325e+01 1.7484572178930343e+01 1.6823733518060489e+00 -44 -77 87
470 1 2.2084525974405722e+01 2.3150787562326975e+01 2.3157644271192184e+00 28 -40 -133
119 1 2.0751381279818808e+01 1.5785390837287254e+01 3.8954812522020004e+00 37 67 93
337 1 4.4990729698164031e+00 1.9351697991617833e+01 5.8069473846605382e+00 42 -4 -47
212 1 1.3350586599317452e+01 2.4351784973418802e+01 3.6383137804748880e+00 -13 -52 -43
224 1 1.5010158894659766e+00 1.5504528547774234e+01 1.5500959709686968e+00 63 -102 6
421 1 8.8004674687100763e+00 2.1206798803950605e+01 2.3971374348284260e+00 20 -2 71
229 1 1.6957159390261332e+01 2.1685540915781772e+01 5.7475443733106237e+00 49 31 16
84 1 2.3631775913184548e+01 1.5249505709803806e+01 5.8407287460310782e+00 25 48 35
506 1 1.2084722293926738e+01 2.2119187993749314e+01 6.6784820885570078e+00 -5 -24 -7
365 1 1.2361315915785449e+01 2.0883815216660871e+01 3.6883639320317274e-01 -12 71 -33
274 1 1.6512597663109823e+01 1.7557517185999259e+01 2.3958410027079413e+00 -38 39 5
201 1 2.5424801690184351e+00 1.3082500991704821e+01 1.4282831566297387e+00 -92 -32 37
184 1 2.2841738945952919e+01 1.7533197840849347e+01 2.3136927883390728e+00 -9 7 35
391 1 6.9201073766837373e+00 2.3245197311773353e+01 1.9603028719223903e+00 -80 -34 0
466 1 3.9005317310050680e+00 2.3520051813035501e+01 7.5042269491096736e+00 112 -32 -15
166 1 1.5160353918693644e+01 1.9633197846838598e+01 6.2384488761586736e+00 35 -1 -6
280 1 9.6717490682650915e+00 1.6587114517809511e+01 4.2206159279089874e+00 20 -34 152
287 1 7.6967325157341842e+00 1.4349165591239995e+01 4.2265235830383583e+00 -16 1 -4
270 1 1.7147912061083375e+01 1.5875424221891233e+01 6.0257037546962366e-01 27 128 103
164 1 3.5247811600737013e+00 1.7389672420554341e+01 4.1126768586121285e+00 61 27 143
102 1 8.9360730127473662e+00 1.9428433005260104e+01 2.0382466271366520e-01 21 -23 20
208 1 2.3493514184175353e+01 1.5015137446114535e+01 1.9364509738782087e+00 21 79 -12
324 1 1.2267350228369557e+01 1.9255199473487153e+01 2.3326552236200255e+00 5 -52 76
101 1 1.9673838122576740e+01 2.2684859568339462e+01 7.5308112087002606e+00 -31 -29 66
42 1 1.3894634036587757e+01 1.7217669099015680e+01 2.8061656713150738e+00 2 88 -67
98 1 1.8666448125088486e+01 1.6672445401785559e+01 6.7053726159892024e+00 69 74 1
213 1 1.9761760478674013e+01 2.2388507748763907e+01 3.8153189017508162e+00 -45 -18 27
386 1 1.4163030728092897e+01 1.5403374384440912e+01 4.8947125598052139e+00 101 -46 4
149 1 5.4259504093277622e+00 2.2464381140883376e+01 5.2138535224682085e+00 -48 58 -17
72 1 2.2586959889562614e+01 1.3302902748863758e+01 4.2747246718496674e+00 35 60 43
339 1 1.5431231383417629e+01 1.3850001318168104e+01 2.2594626120960989e-01 40 46 -2
444 1 1.1631275477150201e+01 1.3640015356491572e+01 5.7271731096748004e+00 0 -33 15
372 1 1.1272726501027092e+01 2.2758196696242415e+01 2.1018048424456972e+00 9 -6 11
356 1 2.7656116141328067e+00 2.1052334568903625e+01 7.2527381474813684e+00 -49 -3 -4
156 1 7.9267281621227947e-01 1.8677941618936558e+01 1.2652090530356603e+00 66 39 -10
264 1 1.1104399396532227e+01 1.6119264683156082e+01 6.8427772817137509e+00 -119 34 37
150 1 1.5957248217233394e+01 2.3549410484446014e+01 7.2500175896356849e+00 83 -15 81
472 1 5.6177435225201267e+00 1.6237248537731524e+01 3.0332429310888158e+00 31 -34 63
51 1 7.0693937662745947e+00 2.3655853833521228e+01 7.6538379205627640e+00 44 -15 -31
283 1 8.6291135138339516e+00 1.3027295686214661e+01 1.6019690452831745e+00 82 -42 63
352 1 2.2225525502873813e+00 1.3592009048749208e+01 5.7181130635717077e+00 48 -52 -58
265 1 2.4597020063172010e+01 2.4614021805233435e+01 1.8833658368836095e-01 -75 -56 58
314 1 5.9396963671596414e-01 2.4623030730995872e+01 4.5813866800833853e+00 -10 16 0
249 1 1.8968118485189663e+01 1.9862806113360747e+01 6.6259927855349936e+00 -70 -59 -15
465 1 4.9916472945364820e-01 2.1817879826082098e+01 3.6331792030065974e-01 32 32 40
374 1 4.9046173564310678e+00 1.2998837767800865e+01 5.3152187562930742e+00 3 29 -5
22 1 3.7761965514834710e+00 1.6840214138295380e+01 4.7737429954254929e-01 7 -66 68
257 1 2.3432840177325588e+01 2.0955696462454128e+01 7.5973664716501466e+00 -26 11 54
139 1 1.6668959521290660e+01 1.5578035071508465e+01 7.8781123572756657e+00 -21 -2 -19
123 1 5.0075441852391460e+00 1.4909783219181758e+01 8.2219315420314771e+00 -79 -5 7
36 1 1.0888925365704978e+01 1.9512294172962527e+01 7.8920959290415196e+00 100 53 114
295 1 5.1287230451787780e+00 1.7578296390841508e+01 8.2128874362825606e+00 -44 -17 -5
6 1 2.1973217659137504e+01 1.3770015362495208e+01 3.2396169836224797e-01 70 11 -22
437 1 1.0618935464747027e+01 1.7504223138682256e+01 1.2048324290659972e+01 9 5 -113
153 1 2.0308984985296185e+01 2.3931046563646959e+01 1.1704591508288374e+01 16 -14 75
448 1 2.0536043680052558e+01 1.3767258438339399e+01 1.5119651315796837e+01 0 -47 -15
215 1 2.9856320972441939e+00 1.2537176501646980e+01 8.6019965229472142e+00 3 -130 -38
206 1 2.0523648669228841e+01 2.1378037536045241e+01 1.3313448159442032e+01 11 -85 28
192 1 8.6312914300177834e-01 1.7035844243185970e+01 8.7271358799259140e+00 -91 81 -66
321 1 1.8842138717404886e+01 1.7229254329100776e+01 1.3334848655284212e+01 38 22 -88
419 1 1.6670612441539113e+01 1.3983548324326422e+01 1.0901691526839294e+01 46 9 16