LAMMPS data file via write_data, version 4 Jan 2019, timestep = 3000000

512 atoms
1 atom types

1.4706334485656392e-01 2.4687936655148746e+01 xlo xhi
1.4706334485656392e-01 2.4687936655148746e+01 ylo yhi
1.4706334485656392e-01 2.4687936655148746e+01 zlo zhi

Masses

1 18.0153

Atoms # atomic

222 1 2.7500960394971967e+00 4.4114943751635671e+00 2.1375060914661130e+00 30 53 47
507 1 1.3984220126564804e+00 1.0960236662517500e+00 6.1159852387158784e+00 -56 25 -29
418 1 1.0002007230484784e+01 1.3449746934012261e+00 1.3551476372799995e+00 -77 -61 -21
240 1 1.4699153562682603e+00 1.0948609697896471e+01 2.2893172250131335e+00 -220 132 70
250 1 9.8062434231466842e+00 1.1446866921178970e+01 8.4031424779270625e-01 -13 21 172
198 1 7.5695980299678545e-01 6.8232577326297879e+00 4.7741665407658491e+00 -37 43 14
449 1 1.8884382091678142e-01 3.9664019573837681e+00 2.4763493563572574e+00 -57 70 23
375 1 3.8671163869358818e+00 6.8422180060915929e+00 7.5816296519374249e-01 14 57 -121
278 1 8.1230671934868219e+00 1.1682177607902564e+00 2.9135808879365408e+00 -92 -104 51
2 1 2.0900232226745487e+01 8.3990973978402206e+00 1.8190373048750739e+00 -49 8 -13
334 1 4.6073693503702460e+00 2.9867245924060262e+00 4.9854505700761669e+00 35 64 15
317 1 1.2571218976221280e+01 8.0538871028307106e+00 4.0346851043429579e+00 113 -21 -33
494 1 2.4670892646764216e+01 1.5685315289713428e+00 3.3335772742512200e+00 -14 63 -85
89 1 2.0034871347946485e+01 9.9956879837155022e-01 5.0460987831986082e-01 -15 6 -176
378 1 1.2363918664312248e+01 1.1173548433077615e+01 2.9976359812256219e+00 17 -14 -61
485 1 2.3045549594266980e+01 1.1721093356367128e+01 2.8087203253650430e+00 -13 -1 80
164 1 5.6529257678799913e+00 2.9661626112557471e+00 2.1138918079958868e+00 60 22 148
22 1 1.8661964642467609e+01 4.6088627730414427e+00 6.1422342194907245e+00 -2 -71 69
505 1 1.6954585941595013e+01 2.4760325129502112e+00 1.3849124974852041e+00 -9 24 -47
23 1 2.0438233216061455e+01 2.5369024991786300e+00 3.0954111876896939e+00 57 37 11
454 1 3.0047906150257941e+00 4.5257282279612197e+00 8.1612180393384737e+00 -47 46 16
64 1 1.7551548226468149e+01 4.9496955946716534e+00 3.4338172927671331e+00 -36 69 16
401 1 3.3884236958131577e+00 5.4887740289477591e+00 5.2888214815849528e+00 30 -1 23
460 1 7.7694291500796808e+00 7.5831056889966577e+00 8.2190230101014361e+00 -122 125 32
345 1 2.0287325209595295e+01 8.3625920859222198e+00 4.6361160395282859e+00 85 131 -23
365 1 6.9532001594701960e+00 6.4633344114432845e+00 6.0958030998410484e+00 -18 74 -35
5 1 1.7815219170784729e+01 1.6114823256183541e+00 3.7230984931226874e+00 48 42 1
4 1 9.9400570029323028e+00 9.3942253307079113e+00 3.2047797799237703e+00 27 -80 10
285 1 1.2626352845564739e+01 2.7666629922691373e+00 3.2372675685077286e+00 -31 93 -9
144 1 2.0924126393088677e+01 9.6834705906994731e+00 6.7529066134666076e+00 -23 39 54
120 1 1.2173394179877764e+01 1.6560571520089695e-01 2.9560803159132116e+00 1 -60 68
502 1 1.4111709037239574e+01 3.7967740247382418e+00 5.5350429957762435e+00 -39 -32 -39
141 1 9.3240823026383861e+00 1.1124625359916720e+01 5.2533104168834823e+00 100 74 0
336 1 2.3732434001948555e+01 4.4242813529117671e+00 5.4587362665702397e+00 42 -10 -131
484 1 8.4732089304092959e+00 6.7231256388203153e+00 3.8314383772470455e+00 -40 -15 99
510 1 9.3092916587071297e+00 4.3270500390743925e+00 8.3850371907900778e-01 -69 147 36
114 1 1.1469401743618217e+01 5.2762997697578982e+00 2.7340813165547551e+00 -16 14 -15
127 1 2.1178962481287904e+01 2.7655944611808838e+00 7.0062238877921761e+00 48 67 84
390 1 8.8952756699823201e+00 3.5862079975177465e+00 4.3182136883822997e+00 -3 -33 -24
40 1 1.9044175667827474e+01 1.1265935927767806e+01 2.6900735870420762e+00 1 42 61
495 1 1.8145345735457887e+01 1.0839201804135072e+01 7.5493844559865799e+00 -24 15 -54
51 1 2.0043486078565927e+01 5.0108775155965750e+00 2.2446519148908615e+00 45 -13 -38
256 1 1.4878814956381881e+01 6.2902937276524362e+00 4.2977951387668059e+00 35 28 -42
148 1 8.4726827191081160e+00 7.9034835783127262e+00 5.7320666986256685e-01 -45 44 79
68 1 2.4170289701689775e+01 9.9063011783786390e+00 4.9099677305069873e+00 1 -7 12
201 1 1.4188851685423074e+01 3.0589845119421466e+00 1.0043445180706427e+00 -91 -48 43
178 1 2.4753718223065446e+00 1.0832752561810514e+01 5.6132818400051452e+00 69 32 -54
306 1 6.7592801360464767e+00 3.8235581189130539e+00 6.5353348835787202e+00 7 64 -62
29 1 2.2162079159561863e+01 1.1919020350815228e+00 4.6073061784397122e+00 61 -29 -26
65 1 6.7907576704434867e+00 5.2287416314841515e+00 1.2253646974514185e+00 -32 75 -17
268 1 1.7004457542031339e+01 6.4229015280074462e+00 7.5970907083666352e+00 -119 -11 0
435 1 1.9768467463217753e+01 1.2129849476207148e+01 5.0164255567603719e+00 -53 -14 -20
298 1 1.0868756053388996e+01 6.4230081089042308e+00 5.5392896213398810e+00 7 38 2
32 1 2.2736420998529624e+01 6.2796552090699507e+00 2.5973017471241500e+00 -53 107 -46
310 1 1.4025210919683841e+01 6.1433125492884857e+00 1.4736720680804545e+00 -14 -15 12
156 1 1.3010409562431381e+01 8.9483083811477382e+00 1.2126951847173548e+00 51 34 -15
292 1 6.4424457922379306e+00 1.1380030674218590e+01 5.9487364176156232e+00 -17 31 64
291 1 1.3238683094651503e+01 7.8104508278292402e+00 7.7261252151392545e+00 23 109 74
200 1 5.7148194843848605e+00 8.0063024620520533e+00 2.0860916842924939e+00 68 89 -17
66 1 1.1014427597702111e+01 3.7336346297498677e+00 6.5553961674002803e+00 -22 35 -32
143 1 1.7674911009930959e+01 7.9001895797296617e+00 3.7780785582242395e+00 43 6 -7
145 1 7.0745863147106416e+00 1.0373131162765437e+01 4.9971732828267607e-01 29 -15 -48
347 1 1.9071738318989850e+00 8.1281164753365331e+00 2.6125679407555267e+00 -131 5 -1
426 1 4.4308433883720229e+00 9.7968611623868256e+00 3.8093238494527255e+00 86 -11 60
339 1 1.7841328376661068e+01 1.9696650351050706e+00 6.1889259359788351e+00 35 42 -4
355 1 1.1053078934428662e+01 7.9439915790491633e-01 5.5156577855106228e+00 -25 -5 60
94 1 6.4102958153540568e+00 1.1509251983350929e+01 2.7760253360665286e+00 -59 37 45
443 1 4.5189038770481211e+00 6.0854615109544574e-01 1.0886770030385300e+00 -104 22 -7
323 1 1.4267397860544280e+01 1.2031870855519138e+01 5.3823734481946959e+00 16 -111 22
377 1 2.1246596660431159e+01 5.8714376639949313e+00 5.4310011819172868e+00 10 17 -112
412 1 2.4264870372571835e+01 8.2555479878645048e+00 7.2748608335913181e+00 -24 23 -63
12 1 7.5356885520727612e-01 3.2489570216705488e+00 7.8336198949162910e+00 50 -47 66
433 1 4.7932982515498921e+00 7.8360231400393694e+00 5.6507872145189317e+00 20 -52 -42
312 1 1.5729717844228318e+01 9.1896867409972423e+00 9.7027728053402995e-01 -9 10 22
153 1 1.4297196719008035e+01 9.5842935888450871e+00 5.8433359282323805e+00 13 -11 75
445 1 1.6705997649529358e+01 8.8389801379740582e+00 6.4879715684265404e+00 117 64 6
25 1 1.6348856509576699e+01 1.0391681612881019e+01 3.2423236586218467e+00 60 -76 -64
224 1 2.3143858652691328e+01 1.1576366764645462e+01 7.3484280210769706e+00 55 -95 5
395 1 1.5335293124024327e+01 1.3769491098024957e+00 6.2290031176889364e+00 -37 42 -54
28 1 4.0868305587635563e+00 2.7066056107979891e-01 5.7930919853044562e+00 21 37 26
286 1 1.7611038733251185e+01 6.9096079901869407e+00 9.5808758805998329e-01 46 -16 16
330 1 2.2521124794747358e+01 1.0257041930539078e+01 5.5516351626461902e-01 -8 30 31
36 1 2.2420123630343582e+01 6.4213797799065304e+00 7.8822505307194124e+00 98 62 122
438 1 2.9064510925866585e+00 8.6883454960698945e+00 7.7461114359783636e+00 26 -8 -57
81 1 1.0653299600147299e+01 7.3851531848577228e+00 8.3068885838156667e+00 53 99 -22
441 1 1.4624037315636681e+01 5.3478452957123768e+00 7.8350308184004405e+00 9 -67 -23
20 1 1.2918520856981823e+01 1.2025823368050784e+01 7.9650526480621808e+00 122 31 21
442 1 8.7956849498365433e+00 2.7507446442536514e+00 8.0402130772887705e+00 16 -15 -102
230 1 1.0724912964557891e+01 1.0330932638855424e+01 7.6488191687707321e+00 10 -23 -143
470 1 2.4592685570664798e+01 8.4051732541098314e+00 2.6787921146349558e-01 22 -34 -134
50 1 2.4074485501683426e+01 2.4390418593399761e+00 1.3757792667793122e+01 9 33 -28
508 1 9.3850384311423802e+00 9.3473332924001902e+00 1.4338833239227000e+01 6 21 -57
233 1 1.3930113337198678e+01 8.1990742821629983e+00 1.3976145130497258e+01 -17 -36 -32
455 1 6.4375758044199687e+00 6.3549832654168403e+00 1.0402745677036181e+01 50 102 26
351 1 2.0038053040861207e+01 9.6183188140663809e+00 1.2462576545266330e+01 22 -23 -62
471 1 2.5806233694222844e+00 2.6794165045144185e+00 1.1497609742590846e+01 -88 -17 23
361 1 8.6293734693533146e+00 2.2717136770196680e+00 1.2796720397342332e+01 -49 111 -10
35 1 6.9978080827281284e+00 1.0042339871488426e+00 1.0980791998026971e+01 -55 27 -43
367 1 6.5555618494314505e+00 1.0269238295566165e+01 1.5088684622115647e+01 2 1 63
209 1 2.3334746623551638e+01 4.5484347880786906e+00 9.6655173420386227e+00 1 20 -34
308 1 1.5396156060919928e+01 7.2479400226583302e+00 1.1536619301218991e+01 47 114 54
109 1 1.4533342620111982e+01 5.9361182216676411e-01 1.2327896564404218e+01 -83 -39 -49
362 1 1.7857292818166229e+01 5.0659117766128947e+00 1.5727287052148839e+01 -59 -17 -63
309 1 2.2065114373837318e+01 1.0254842977836276e+01 1.0710743623133487e+01 67 60 -43
295 1 1.3813916228658691e+01 5.3004163075830126e+00 1.0452272985038201e+01 -37 -13 -2
219 1 1.7543375369342947e+01 9.9363126113782361e+00 1.0707003492917805e+01 -31 -8 -105
206 1 1.3809148116459497e+01 5.4967725510187124e+00 1.4681120552648698e+01 16 -87 27
17 1 1.8679893074487566e+01 5.7975982599199467e+00 1.2256151751605536e+01 38 25 20
76 1 2.0804796749964964e+01 8.2445062398444904e+00 9.2076330482226538e+00 18 33 8
162 1 7.7080330790285467e-01 8.9496491863938896e+00 9.9181382343617646e+00 -43 7 8
421 1 2.4585236141802325e-01 6.3278948006114577e-01 1.0321168101225052e+01 23 3 76
136 1 2.0253265234862674e+01 2.1954144701235587e+00 1.4129090625777563e+01 36 -63 114
191 1 1.6829744893448435e+01 2.4939845844311872e+00 1.5490381258251347e+01 51 -12 -26
24 1 1.9970536661789815e+01 4.4924670202567327e+00 9.3984783169508539e+00 20 -62 71
158 1 1.5211815569876123e+01 1.1736881227108064e+01 9.3101393801067633e+00 -67 64 -93
350 1 2.3732149504882493e+01 1.1134452100097304e+01 1.3442540335644436e+01 22 -10 37
42 1 1.2248843731276873e+01 1.0335374499066328e+01 1.4631091343208716e+01 0 90 -65
54 1 1.1344528570531203e+01 9.7003858913886294e+00 1.1236113870960455e+01 -4 9 50
490 1 1.3630241440904188e+01 9.2516027190175620e+00 9.9645870123525455e+00 16 -98 2
463 1 2.1808885691969429e+01 1.9219220000715478e+00 9.9049826449277631e+00 -45 28 -39
467 1 4.7008203038136548e-01 1.0870080719831062e+01 1.5806441453003185e+01 -54 106 55
399 1 2.7282941090129333e+00 8.2160659173671053e+00 1.3257884479436505e+01 20 63 -25
195 1 7.4912314838891216e+00 4.6806157738487100e+00 1.3822123965119912e+01 -18 -4 84
461 1 8.1313168324713150e+00 1.1373257521553494e+01 1.2618581298403059e+01 12 26 -10
119 1 5.0004817826766796e+00 8.4703172902982438e+00 1.1717711361434477e+01 48 65 95
260 1 4.9525621854689099e+00 4.5322586208907154e+00 1.5396330512702759e+01 -35 -1 62
396 1 2.1859928654076178e+01 6.7957915198323606e+00 1.5694234535051191e+01 -5 3 19
103 1 8.8371789644906080e+00 1.1644183432379348e+01 9.5574287037651438e+00 -24 42 -53
75 1 4.0639367769742822e+00 1.0940219071140632e+01 8.9310524365392219e+00 14 37 7
172 1 1.2364144948980826e+01 5.7667340988973992e-01 1.3910431016577494e+01 -27 -102 37
303 1 1.5187953050914707e+01 3.5918847692521068e+00 1.2687562017575159e+01 27 -4 202
325 1 5.3395036978698620e+00 3.0171494913869963e+00 8.6835651205720286e+00 -72 26 29
476 1 2.4586104159547418e+01 8.6932314836053344e+00 1.2539561926558363e+01 -32 -12 -49
358 1 1.5001500958140527e+01 2.4219936593290319e+00 9.7640644156468941e+00 -34 88 48
478 1 5.5018079939930908e+00 1.8549046167736425e+00 1.5579735263916721e+01 26 -10 33
328 1 1.1962805999558709e+01 2.6109501632183121e+00 9.6431114965370739e+00 81 79 -15
410 1 1.0926734363416593e+01 5.9291986674275954e+00 1.0355604713896621e+01 21 127 5
263 1 1.8339320432284467e+01 7.1815590566307987e+00 9.8123087191007219e+00 28 138 3
369 1 1.9438002445955554e+01 7.3170519267337593e+00 1.4430208212928733e+01 -2 65 4
277 1 1.8201673313622599e+01 3.1936184843404858e+00 1.2702827406405357e+01 41 11 109
159 1 5.1286841420473310e+00 3.1172488737370263e-01 8.5746006683719962e+00 -43 46 100
192 1 3.7159340047564808e+00 1.8418410861180609e-01 1.1943017750129718e+01 -91 76 -58
420 1 9.5479353895596719e-01 5.3110664411650346e+00 1.1212455384261053e+01 30 -13 118
87 1 2.7802586601712771e+00 1.0387649025653889e+01 1.4670088374762935e+01 0 35 90
196 1 2.9554064932016066e+00 6.8696592098183134e+00 9.9656942492461518e+00 5 24 13
453 1 1.0904922283342243e+01 6.1713580200351519e+00 1.5916655236455847e+01 64 -8 -1
38 1 7.8077507165893776e+00 9.7496238501743615e-01 1.4826701975455453e+01 -9 54 -24
386 1 1.0831058086754414e+01 1.5319911063477620e+00 1.2145746158256649e+01 96 -38 -1
146 1 7.8979088738775447e+00 7.2835970011263589e+00 1.2854399193056160e+01 -13 -12 1
489 1 5.3909622307722946e+00 3.8677795741406711e+00 1.1378011672830151e+01 75 184 -50
213 1 1.8310098524730911e+01 2.1108521216591813e+00 9.8254347692203226e+00 -47 -10 18
341 1 1.6902917003045381e+01 4.3268668717818809e-01 1.3722280173985521e+01 41 -41 59
72 1 1.3414272220501839e+00 1.1930869370494079e+01 1.0617939706380849e+01 27 66 48
267 1 1.5910220034070127e+01 1.0056358813293073e+01 1.2978459189923406e+01 -97 57 -54
452 1 1.3836937331104810e+01 2.5369224802676751e+00 1.5322272135192259e+01 14 2 85
220 1 5.7664606870165942e+00 7.4332638743549913e+00 1.4950079752741766e+01 47 3 15
432 1 1.1201569663389758e+01 7.1697109964216379e+00 1.3224012054474757e+01 38 -50 -1
19 1 5.6663969146695372e+00 1.1030287894170206e+01 1.1624315166089055e+01 5 50 80
107 1 1.3113919071439193e+00 6.0999395505905953e+00 1.4497215366653263e+01 -31 59 -131
371 1 1.7508307690192233e+01 9.3391793283111202e+00 1.5092651820043416e+01 -80 35 -59
297 1 2.1090759623524908e+00 3.8195590159531725e+00 1.4269657647573538e+01 10 28 -15
393 1 8.9560532320028710e+00 4.1475194339034571e+00 1.0453961263396153e+01 90 46 -93
337 1 2.0936422211417764e+01 1.1735662038030044e+01 1.3970605167049037e+01 30 10 -44
177 1 2.2153956632876223e+01 3.5622009904431216e+00 1.2491023099312152e+01 -17 -41 47
44 1 2.3360828963365712e+01 6.0533302281525732e+00 1.3405599655440410e+01 -22 -21 93
27 1 1.1249177079517336e+01 1.2404621653581927e+01 1.1131356295500229e+01 10 -27 57
416 1 2.6808159270651686e+00 5.0930234300614097e-01 1.6030747402071782e+01 -13 -33 25
320 1 2.2979376107568484e+01 1.2190548808980723e+00 1.6257128989134905e+01 19 91 32
374 1 6.9673547181315998e+00 1.0077653784905218e+01 8.3306666429118348e+00 -6 34 -9
360 1 2.0367903157088740e+01 1.1124351626195516e+01 1.6816357801258505e+01 -93 -27 73
194 1 6.4800956519677531e+00 4.8943476818521781e+00 2.2828593341241756e+01 44 109 6
299 1 1.1129215791317492e+01 8.1803592878954436e+00 2.3764986280767111e+01 50 20 65
229 1 2.3120267703730619e+01 4.2609389526963959e+00 1.8294209277681574e+01 50 25 17
85 1 5.2781827470361060e+00 9.1762930854030316e+00 2.1023856602595295e+01 29 36 -98
106 1 1.5959769779822819e+01 7.5225874116970193e-01 2.3264451452086007e+01 23 -12 1
207 1 1.5191615763254486e+01 8.7293544430480594e+00 1.6952990718480713e+01 42 -31 1
425 1 1.7026263739538997e+01 8.1600368624797195e+00 2.2160627157025793e+01 71 33 -12
409 1 1.6879102468209091e+01 3.0658936262729228e+00 1.9936873464170127e+01 -55 83 73
124 1 2.3727781468269922e+00 7.6239950214550296e+00 1.8682603421337149e+01 -46 157 -17
47 1 8.0577362532557313e+00 6.9045687504762938e+00 1.8682841332910634e+01 16 61 -100
11 1 1.7665451133912953e+01 1.0249328858396559e+01 1.9600056803722779e+01 21 76 -53
457 1 1.2552468146970813e+01 2.6038075309896715e+00 1.7757437150063694e+01 -15 -50 61
83 1 8.9090809692237887e+00 1.0839413820512744e+01 1.8131746151601696e+01 40 8 8
343 1 9.1642416174359020e+00 7.0529094608503442e+00 2.0988367140810787e+01 -65 21 145
264 1 8.6714498106373288e+00 2.8068427874435518e+00 2.2913249859262933e+01 -115 25 40
59 1 2.0500667492336859e+01 5.0598242918078942e+00 1.7228017205701128e+01 48 -97 50
300 1 1.9674884094242707e+01 5.4638771620174316e+00 1.9806429966632685e+01 -79 60 28
349 1 2.8579737287576168e+00 6.7790315202210634e+00 2.1348073601582946e+01 5 23 51
344 1 1.0098755913028208e+01 8.3602259324433668e+00 1.7143713502823545e+01 40 -41 8
71 1 1.6946239135740640e+01 3.5537873228991472e+00 2.2697150857651792e+01 59 -63 -65
287 1 2.0006229128936781e+01 2.7269202747856132e+00 2.1027599950388698e+01 -12 2 -11
364 1 1.7435621780468892e+01 6.8328721411680782e+00 1.9717920065150082e+01 112 14 -9
270 1 5.1161044886969460e+00 1.1297928728410556e+01 2.3261500865959277e+01 20 130 104
462 1 1.5619856114644669e+01 5.3635256715207946e+00 1.9407426846631630e+01 -74 14 34
322 1 7.3694227976023221e+00 7.4944406700312136e+00 2.2686236668045147e+01 26 55 -18
486 1 2.3171848637662535e+01 1.0989207161884719e+01 2.2183448884462557e+01 47 17 -20
458 1 1.4778577120332004e+01 1.1860896215143175e+01 2.4065828261409521e+01 -28 40 3
217 1 1.3472664149520986e+01 1.2468742946948577e+00 2.3093540004098244e+01 96 -40 80
451 1 1.5176787440822794e+01 8.4325074829747915e-01 1.9268496263886959e+01 74 33 -12
140 1 2.1807607454070165e+01 1.1088029622030717e+00 1.9012739097552519e+01 -68 32 -15
77 1 1.5681071001802447e+01 5.9073544974516459e+00 2.3257315923057057e+01 51 -32 4
67 1 2.4077873901203432e+01 9.1300192258317381e+00 1.7464106639653501e+01 -23 -77 -34
33 1 2.0074932590483826e+01 1.1409463318979778e+01 2.1856935695657342e+01 -95 -38 -15
190 1 8.7060848167857099e+00 2.8374928662454324e+00 1.9345904045756740e+01 91 84 28
234 1 2.2940904261700013e-01 6.3870941411289666e+00 1.7104382372997499e+01 76 -19 26
352 1 6.1152825299309370e+00 1.5418612012879676e+00 2.1956330039372013e+01 46 -50 -64
324 1 1.8237199589938527e+01 1.0215272359546800e+01 2.4656654691848267e+01 4 -57 80
21 1 1.4476364672082612e+01 1.0061396458055160e+01 1.9840857544492025e+01 12 -6 -123
151 1 2.0597681436292930e+01 8.6355404882525910e+00 2.0863180820727941e+01 -48 -43 -10
424 1 4.5701014194981564e+00 3.8510810162188727e+00 1.8135445533565623e+01 37 0 -16
170 1 3.2845725253211775e+00 1.1761584906489113e+00 2.3163891506852735e+01 4 40 -18
491 1 1.1058898220101565e+01 4.9985554508325176e+00 2.0376293148960819e+01 -44 -30 -25
302 1 1.0906166431577446e+01 9.1539635620025592e+00 2.0963976844238616e+01 35 -76 -28
400 1 2.2395848087286517e+01 2.8540095250384989e+00 2.2188167796638986e+01 56 21 -35
288 1 9.5931933403932756e+00 1.1337527799228003e+01 2.0649734067215917e+01 -71 -25 -71
501 1 1.1858693883330427e+00 4.5224468694728746e+00 2.2620123839666171e+01 36 -15 -7
403 1 1.2562378758036923e+01 5.4228909127933536e+00 1.8017285633737607e+01 -66 54 7
448 1 9.8204192716145524e+00 2.5642468141366184e+00 1.6696686352766726e+01 -1 -40 -10
261 1 5.5342841459059100e+00 1.2112183539689138e+01 1.7135021328861484e+01 9 27 -118
388 1 1.9535565629651366e+01 4.0832927839285134e+00 2.4067582639794793e+01 64 -4 38
82 1 1.9046669689549105e+01 3.0790918294393033e-01 2.2155739590696051e+01 -13 1 4
269 1 1.7647732821728702e+01 1.1571950386641790e+01 1.6884631613853848e+01 19 -35 9
319 1 4.4068646024939845e-01 2.9576309203614333e+00 2.0416512282941333e+01 -34 -1 47
98 1 3.0656750499760959e+00 1.1171404995995513e+01 2.0410243042025613e+01 67 78 -5
175 1 2.4531840248498376e+01 7.8958089688883435e+00 2.1710612078596718e+01 43 5 -19
311 1 2.8192723121420764e+00 8.6698475113019668e+00 2.3406231837219948e+01 14 -55 18
335 1 6.4624060501280480e+00 9.1987213484892827e+00 1.8396785156982659e+01 20 -16 85
154 1 2.1318033846349458e+01 8.7998562602034323e+00 1.7768454025945488e+01 99 -35 0
247 1 1.3709601446007220e+01 6.3437811741500898e+00 2.1477003635389075e+01 15 -13 4
239 1 2.2274788402792140e+01 6.3126102337492451e+00 2.0405492867911981e+01 47 -22 3
31 1 1.7954210772987530e+01 8.2683110943982507e-01 1.7440564167906402e+01 -56 -21 117
439 1 1.4164814475475573e+01 9.1438501922401851e+00 2.2286506874938290e+01 27 -44 -79
389 1 1.2017148901352265e+01 1.1648292881876019e+01 2.3511474856244867e+01 11 73 -11
166 1 1.7746670773808653e+00 6.7596710290802109e-01 2.0604873788558777e+01 36 -4 -13
126 1 3.7831111915236546e+00 4.3165494959186246e+00 2.3570495917550453e+01 -23 -29 -39
221 1 1.1293352459976525e+01 3.3459881873927002e+00 2.2420747919921084e+01 5 0 44
69 1 1.2328053740716440e+01 8.7896390523268568e+00 1.8562963782729462e+01 -14 11 5
282 1 5.1235862540625137e+00 1.4228673486794647e+00 1.8994297021178078e+01 33 34 75
117 1 6.7523353414565053e+00 4.4726598449569215e+00 1.9739372432934239e+01 49 52 90
63 1 2.3363472694960929e+00 4.6442488076538071e+00 1.8920081703495050e+01 4 -6 -96
512 1 1.9821778774890348e+01 7.5034428312175363e+00 2.3681041714749362e+01 -33 -24 88
93 1 1.3014813884682248e+00 1.1203586372967907e+01 2.3264095249439535e+01 -39 -7 9
57 1 3.9709688634774243e-01 1.0175142508605038e+01 1.9810304276598401e+01 -18 2 29
274 1 2.2047291801019192e+01 5.3071238388521262e+00 2.3012624624144273e+01 -46 36 3
176 1 1.1694590856430812e+01 5.5775744445162880e+00 2.4224311624246617e+01 -101 -99 -33
203 1 1.3361630901495187e+00 2.7047366734522882e+00 1.6641670885805411e+01 106 -114 80
236 1 1.2550885027372050e+01 1.3831019693895739e+00 2.0125400552563434e+01 40 80 67
133 1 4.1885357555688660e+00 8.8462922673764091e+00 1.7085605979853483e+01 -37 74 -51
318 1 1.2369768221697328e+01 1.1435701377856295e+01 1.7098490428136117e+01 34 6 156
504 1 1.6858364563840134e+01 1.2047871690777436e+01 2.1751857260400108e+01 -28 -34 42
314 1 2.2623143835750717e+01 1.1247197853643143e+00 2.3924149250813841e+01 -15 22 -6
211 1 6.7603287398147782e-01 2.2342388194175036e+00 2.4341492286640332e+01 -38 18 -15
6 1 1.5344282824415728e+01 6.0993390835501371e+00 1.6871072017176743e+01 77 13 -26
243 1 2.0217308420998577e+01 2.3260566422313267e+00 1.6583339986820626e+01 13 -46 -9
466 1 2.4152861918019703e+01 5.8825072360057282e+00 2.4618230074044639e+01 108 -28 -16
37 1 8.7002765147909411e+00 5.1400519746163322e+00 1.6518986568143056e+01 54 18 -42
340 1 1.4608220415815767e+01 1.2789336559352774e+01 2.1649100383218562e+00 50 46 22
238 1 1.9229522135042323e+01 1.5915698020195542e+01 2.8096595619644567e+00 53 13 -20
73 1 3.0467200345636558e-01 1.3763355578833128e+01 1.7499239701591567e+00 -61 17 15
121 1 1.5214772030789685e+01 2.4238014365983602e+01 3.6533821664220500e+00 -12 5 -1
503 1 2.2234264098586003e+01 2.0318721283407577e+01 2.9025806268743035e+00 -8 1 24
30 1 1.6350267597269202e+01 2.3863214787367461e+01 1.1065678555939527e+00 -82 0 -11
459 1 2.3797622580506612e+01 1.8167781392474573e+01 1.5359380783006733e+00 59 -22 53
3 1 2.8727547186950835e+00 1.3686675345858410e+01 6.6893352284508785e+00 16 48 26
408 1 1.5788554812846060e+01 2.0018325738313884e+01 4.4806498842876819e+00 -141 21 54
417 1 5.6746064510727132e+00 1.3708478152185272e+01 6.8335441155301053e+00 14 6 -19
246 1 1.2301218183333832e+01 2.1490189637669367e+01 6.1861286788719951e+00 76 60 109
509 1 2.2428824042898604e+01 2.4664053294419404e+01 7.9466397321995013e+00 116 47 -74
333 1 6.1020654521487359e+00 1.4574696638724109e+01 1.5405723484466454e+00 21 32 36
357 1 8.8172383422484160e+00 1.5711541467367644e+01 6.2373831814924134e+00 1 -19 -12
104 1 1.7535479322363884e+01 1.8526460863922274e+01 3.0013429027462140e+00 82 24 -19
249 1 3.3920939075620811e+00 1.9126194109428710e+01 4.6134929778323173e+00 -66 -48 -23
197 1 1.7357256961734727e+01 2.2416038123287471e+01 5.1795755136969328e+00 2 31 52
326 1 4.4962127099517852e+00 2.1292748378298690e+01 2.6182816368929998e+00 38 112 -9
316 1 5.7299373399250140e+00 1.9275831099366243e+01 7.8830648222839930e+00 44 120 75
116 1 1.6768432848990180e+01 2.2145343266580447e+01 8.0457620190067267e+00 -56 -4 -5
128 1 6.0720949161484850e+00 1.6016032245683903e+01 4.7414438271576591e+00 22 5 -20
113 1 8.6665370541968674e+00 2.1225920566417891e+01 1.6554401307370084e+00 -48 18 89
321 1 1.0930165748676982e+01 1.3678830276889302e+01 2.3664524385900392e+00 44 22 -83
171 1 2.3234892803731199e+01 2.3328760833927767e+01 1.9239689188692652e+00 -21 39 11
481 1 4.3127095670933704e+00 1.7303508640948657e+01 6.4778237744739116e+00 38 -15 -18
384 1 8.6858817969444466e+00 2.3752594872741128e+01 5.0369593907132906e+00 1 8 16
210 1 1.9812990017070767e+01 2.2133485002159325e+01 6.3947655909030940e+00 -13 -5 43
423 1 1.8791880296339066e+01 2.3764100846074456e+01 3.1530518773953053e+00 -13 3 62
216 1 1.2812514487953122e+01 1.4233323311524439e+01 2.3055494737774074e-01 -29 -1 165
437 1 2.4132543560218849e+01 2.1190706595343023e+01 4.8110437664934400e+00 16 6 -115
379 1 3.3960546576336212e+00 1.2892882079841453e+01 2.5817046509760928e+00 135 -9 59
123 1 2.7042751688406386e-01 1.4560907395943000e+01 7.0550138848585267e+00 -74 -5 -2
52 1 2.3414247517648029e+01 1.5779500893022243e+01 2.8130360948312183e+00 93 -92 127
498 1 1.8194822390367506e+01 1.7743771041000912e+01 5.6612777042644185e+00 38 16 2
474 1 1.2403365799511883e+01 1.8638665560953726e+01 8.2413385121161333e+00 -12 -63 -40
79 1 1.2857001790140711e+01 1.8882420003168903e+01 4.8643812653520433e+00 -1 -96 106
363 1 1.3636355684990445e+01 1.6065380807938968e+01 2.6500868045390522e+00 -14 -50 28
446 1 1.5027500567350865e+01 2.4418278196979848e+01 8.3108488136022292e+00 32 29 -12
115 1 1.4370706465871926e+01 1.6301277783629232e+01 5.1403883608587257e+00 80 -154 28
304 1 1.6838064491697139e+01 1.4669124046192426e+01 1.7512913464460973e+00 -24 -51 122
273 1 1.9094978022481762e+01 2.4666933288349846e+01 7.9539674592485463e+00 79 176 124
265 1 2.1900146405426206e+01 1.7283269318961892e+01 4.9279640088074448e+00 -75 -51 61
100 1 7.1093868447803554e-01 1.6100920341102128e+01 4.7934647907618748e+00 41 -126 -23
373 1 2.3508858424679624e+00 2.4592966685901267e+01 2.6272236140669789e+00 57 41 -47
183 1 1.0702355956377557e+01 2.1932144266395753e+01 3.6182935268595706e+00 32 100 19
215 1 1.7026458188901287e+01 1.5054549444065151e+01 4.7671183994434623e+00 7 -136 -44
147 1 7.6512715840153858e+00 1.7796726421971755e+01 3.0769231236582040e+00 -24 30 92
56 1 2.9011928600047354e+00 2.1914776441092691e+01 5.5456340917590623e+00 -17 80 26
55 1 2.0862842067356880e+01 1.7301212714738277e+01 9.6558023866798182e-01 26 61 -17
18 1 1.4187806137217205e+01 2.1999393590252303e+01 5.9694307943574754e-01 57 56 47
110 1 1.1705310679370678e+01 1.8265652976974025e+01 2.2640851245627651e+00 23 -33 -33
245 1 6.9769942943134113e+00 2.3689967800925466e+01 6.8211522012320069e-01 -19 4 89
383 1 2.1558866813755465e+01 2.3087601218363254e+01 4.7679289654696557e+00 -50 90 -21
475 1 1.5147149705150214e+01 1.7637012161725806e+01 1.0885924068508090e+00 21 -17 -27
327 1 6.7313358520644062e+00 2.0366643892706605e+01 3.7672823340728261e+00 80 1 8
380 1 1.3450575051522252e+01 2.1601793328577564e+01 3.0790836399337840e+00 -11 90 61
132 1 3.9614958817772075e+00 2.0972949525071655e+01 7.9696773893224897e+00 -41 4 -71
329 1 9.4494214532477017e+00 1.6213843977998927e+01 1.5568401711786708e+00 9 -122 -62
129 1 2.2959475286894346e+01 1.3280366887703710e+01 5.5135959559570225e+00 -45 -34 -80
280 1 1.7120979050633046e+01 1.3027621759074579e+01 6.2232666892517452e+00 18 -46 154
134 1 3.2372906527914669e+00 1.5621090042364829e+01 3.6730356607001680e+00 -81 -8 13
1 1 6.4605808284877442e-01 2.3080370808567949e+01 7.3590403279952383e+00 -53 -50 57
368 1 1.4622373411041603e+00 2.2099083326747106e+01 2.5747073713373769e+00 41 -33 53
482 1 8.4876565939052484e-01 1.8704600035711444e+01 5.4760662673314027e+00 11 74 36
167 1 9.7813931981922089e+00 2.0118359018363144e+01 7.0335047022671295e+00 23 -14 10
70 1 2.0617595154991072e+01 1.5022877254589652e+01 5.4112437236179263e+00 91 -7 5
181 1 1.2088030750634339e+01 2.4011813502020914e+01 7.6847060621471712e+00 82 70 -47
228 1 1.1122696914035654e+01 1.6234614759956060e+01 8.2922266042433641e+00 -30 20 11
9 1 3.2811616614308088e+00 1.8187904731301806e+01 2.1035977194334139e+00 -43 37 21
212 1 1.0238262503963643e+01 1.3872554561058676e+01 5.1504653116335684e+00 -9 -52 -36
419 1 7.7720884959507277e+00 2.1397017411260187e+01 6.2349194516606783e+00 50 9 22
254 1 1.2775787666007796e+01 1.4686232028734580e+01 6.2908116342121669e+00 43 87 47
366 1 9.8899478185113967e+00 1.8352065432080430e+01 5.0749660664615552e+00 154 -14 -48
160 1 2.0498541967126293e+01 1.9507426921599340e+01 4.9628723800780472e+00 -22 45 47
376 1 1.9588915644854211e+01 1.9743906641496650e+01 1.8904557496152947e+00 -75 -5 0
465 1 5.8755634196640605e+00 2.3688707190665092e+01 3.8078606904399894e+00 27 33 31
492 1 5.8951883764106139e+00 1.8006427860800663e+01 1.0647585541059397e+00 -3 -23 55
95 1 2.3749520179784895e+01 1.7491454649610191e+01 7.7764097111543755e+00 60 128 2
43 1 2.1207880508101347e+01 1.3732641545971447e+01 2.1591177308863450e+00 2 -4 14
305 1 1.9021089482850954e+01 1.6148119878249744e+01 7.7193605293189531e+00 9 85 32
296 1 1.8979403614678652e+01 2.2318078759610913e+01 5.2603939031368063e-01 -42 -109 56
496 1 1.6131459040785526e+01 1.7857978771764465e+01 7.3399809541273591e+00 -6 -20 15
406 1 1.4848454285832549e+01 2.0147927434644927e+01 7.7742603587827075e+00 46 136 9
168 1 2.1875082384382921e+01 1.9155174641376568e+01 7.5010144232260130e+00 87 -57 -62
258 1 1.2598014697855247e+01 1.4637248899569602e+01 9.8227089217557211e+00 125 -64 73
62 1 1.7938636241586003e+01 2.2682301582506213e+01 1.5661779594921200e+01 79 -16 -49
193 1 3.2248199658438712e+00 2.0402870912503843e+01 1.5629618288994983e+01 -76 20 -2
487 1 2.0937985553367554e+01 2.2077710512827380e+01 9.3442820990406066e+00 33 42 2
301 1 1.7379015319998260e+01 1.4354577189330662e+01 8.5531725177556837e+00 128 28 29
499 1 2.4493624636470628e+01 1.6694362137680351e+01 1.0671414485043416e+01 35 -20 -70
225 1 1.2548776604406815e+01 1.6578683742049144e+01 1.1726708100905560e+01 18 76 12
96 1 2.5222203518790081e+00 1.7295464379180103e+01 1.2620358934026294e+01 243 45 62
208 1 2.1271630739285470e+01 1.7318311421043333e+01 1.5041275110076217e+01 18 83 -5
456 1 2.2907612443159096e+01 1.8339745344950614e+01 1.2896508552325786e+01 -30 -38 9