LAMMPS (4 Jan 2019)
# LAMMPS input script
boundary p p p
units       real
atom_style  atomic
atom_modify map array sort 0 0
read_data   data.in
  orthogonal box = (0.147063 0.147063 0.147063) to (24.6879 24.6879 24.6879)
  1 by 2 by 3 MPI processor grid
  reading atoms ...
  512 atoms
  reading velocities ...
  512 velocities
pair_style  sw
pair_coeff  * * mW.sw WT

# ----- Variables -----
variable seed equal 19825
variable T equal 250.0000000000
variable P equal 986.923 # 1 bar

# ----- Initialize -----
neighbor 2.0 nsq
neigh_modify delay 0 every 1 check yes
timestep 5 # 5 fs   # Fix timestep here

# ----- Log file output -----
thermo       10000
thermo_style    custom  time temp press pe ke lx ly lz density vol
thermo_modify line multi norm yes flush yes format float %.6f

# ----- equilibruate --------
#velocity  all create ${T} ${seed}
fix 1 all npt temp ${T} ${T} 100 iso ${P} ${P} 1000
fix 1 all npt temp 250 ${T} 100 iso ${P} ${P} 1000
fix 1 all npt temp 250 250 100 iso ${P} ${P} 1000
fix 1 all npt temp 250 250 100 iso 986.923 ${P} 1000
fix 1 all npt temp 250 250 100 iso 986.923 986.923 1000
run 1000000 # 5 ns
Neighbor list info ...
  update every 1 steps, delay 0 steps, check yes
  max neighbors/atom: 2000, page size: 100000
  master list distance cutoff = 6.3065
  ghost atom cutoff = 6.3065
  1 neighbor lists, perpetual/occasional/extra = 1 0 0
  (1) pair sw, perpetual
      attributes: full, newton on
      pair build: full/nsq
      stencil: none
      bin: none
Per MPI rank memory allocation (min/avg/max) = 2.697 | 2.697 | 2.697 Mbytes
---------------- Step        0 ----- CPU =      0.0000 (sec) ----------------
Time     = 0.000000 Temp     = 255.658457 Press    = 2426.941952 
PotEng   = -10.357202 KinEng   = 0.760581 Lx       = 24.540873 
Ly       = 24.540873 Lz       = 24.540873 Density  = 1.036312 
Volume   = 14779.850473 
---------------- Step    10000 ----- CPU =      5.7854 (sec) ----------------
Time     = 50000.000000 Temp     = 229.262249 Press    = 791.323816 
PotEng   = -10.320820 KinEng   = 0.682052 Lx       = 24.704509 
Ly       = 24.704509 Lz       = 24.704509 Density  = 1.015855 
Volume   = 15077.478074 
---------------- Step    20000 ----- CPU =     11.5263 (sec) ----------------
Time     = 100000.000000 Temp     = 248.931175 Press    = 1690.712802 
PotEng   = -10.342408 KinEng   = 0.740567 Lx       = 24.633214 
Ly       = 24.633214 Lz       = 24.633214 Density  = 1.024701 
Volume   = 14947.316765 
---------------- Step    30000 ----- CPU =     17.2809 (sec) ----------------
Time     = 150000.000000 Temp     = 232.219618 Press    = 2233.832919 
PotEng   = -10.350446 KinEng   = 0.690851 Lx       = 24.621164 
Ly       = 24.621164 Lz       = 24.621164 Density  = 1.026206 
Volume   = 14925.392451 
---------------- Step    40000 ----- CPU =     23.1571 (sec) ----------------
Time     = 200000.000000 Temp     = 250.046618 Press    = 1119.086068 
PotEng   = -10.355416 KinEng   = 0.743886 Lx       = 24.711390 
Ly       = 24.711390 Lz       = 24.711390 Density  = 1.015007 
Volume   = 15090.079441 
---------------- Step    50000 ----- CPU =     29.1627 (sec) ----------------
Time     = 250000.000000 Temp     = 245.045808 Press    = 938.938924 
PotEng   = -10.308131 KinEng   = 0.729008 Lx       = 24.670374 
Ly       = 24.670374 Lz       = 24.670374 Density  = 1.020078 
Volume   = 15015.064741 
---------------- Step    60000 ----- CPU =     35.1727 (sec) ----------------
Time     = 300000.000000 Temp     = 259.309608 Press    = 1459.686561 
PotEng   = -10.299493 KinEng   = 0.771443 Lx       = 24.631141 
Ly       = 24.631141 Lz       = 24.631141 Density  = 1.024960 
Volume   = 14943.542961 
---------------- Step    70000 ----- CPU =     41.1023 (sec) ----------------
Time     = 350000.000000 Temp     = 243.496761 Press    = 769.882987 
PotEng   = -10.375051 KinEng   = 0.724400 Lx       = 24.680158 
Ly       = 24.680158 Lz       = 24.680158 Density  = 1.018865 
Volume   = 15032.935543 
---------------- Step    80000 ----- CPU =     47.0717 (sec) ----------------
Time     = 400000.000000 Temp     = 245.716490 Press    = 134.879146 
PotEng   = -10.414308 KinEng   = 0.731004 Lx       = 24.708825 
Ly       = 24.708825 Lz       = 24.708825 Density  = 1.015323 
Volume   = 15085.381729 
---------------- Step    90000 ----- CPU =     53.0067 (sec) ----------------
Time     = 450000.000000 Temp     = 251.806482 Press    = -280.093081 
PotEng   = -10.388749 KinEng   = 0.749121 Lx       = 24.707660 
Ly       = 24.707660 Lz       = 24.707660 Density  = 1.015467 
Volume   = 15083.246432 
---------------- Step   100000 ----- CPU =     58.9809 (sec) ----------------
Time     = 500000.000000 Temp     = 230.442309 Press    = 1413.537505 
PotEng   = -10.358087 KinEng   = 0.685563 Lx       = 24.736505 
Ly       = 24.736505 Lz       = 24.736505 Density  = 1.011918 
Volume   = 15136.135846 
---------------- Step   110000 ----- CPU =     65.0065 (sec) ----------------
Time     = 550000.000000 Temp     = 255.748578 Press    = 610.362526 
PotEng   = -10.335495 KinEng   = 0.760849 Lx       = 24.677684 
Ly       = 24.677684 Lz       = 24.677684 Density  = 1.019172 
Volume   = 15028.416493 
---------------- Step   120000 ----- CPU =     70.9912 (sec) ----------------
Time     = 600000.000000 Temp     = 238.734861 Press    = 1148.009505 
PotEng   = -10.429140 KinEng   = 0.710233 Lx       = 24.680991 
Ly       = 24.680991 Lz       = 24.680991 Density  = 1.018762 
Volume   = 15034.458924 
---------------- Step   130000 ----- CPU =     76.9246 (sec) ----------------
Time     = 650000.000000 Temp     = 251.411344 Press    = 1270.984543 
PotEng   = -10.345696 KinEng   = 0.747946 Lx       = 24.625835 
Ly       = 24.625835 Lz       = 24.625835 Density  = 1.025623 
Volume   = 14933.888704 
---------------- Step   140000 ----- CPU =     82.9102 (sec) ----------------
Time     = 700000.000000 Temp     = 256.824209 Press    = 547.484123 
PotEng   = -10.309286 KinEng   = 0.764049 Lx       = 24.667638 
Ly       = 24.667638 Lz       = 24.667638 Density  = 1.020417 
Volume   = 15010.069774 
---------------- Step   150000 ----- CPU =     88.8941 (sec) ----------------
Time     = 750000.000000 Temp     = 245.962219 Press    = 573.132739 
PotEng   = -10.367569 KinEng   = 0.731735 Lx       = 24.717655 
Ly       = 24.717655 Lz       = 24.717655 Density  = 1.014235 
Volume   = 15101.559112 
---------------- Step   160000 ----- CPU =     94.8232 (sec) ----------------
Time     = 800000.000000 Temp     = 239.589260 Press    = 1294.982824 
PotEng   = -10.336945 KinEng   = 0.712775 Lx       = 24.507236 
Ly       = 24.507236 Lz       = 24.507236 Density  = 1.040585 
Volume   = 14719.158370 
---------------- Step   170000 ----- CPU =    100.7608 (sec) ----------------
Time     = 850000.000000 Temp     = 253.852615 Press    = 1932.327637 
PotEng   = -10.355917 KinEng   = 0.755209 Lx       = 24.603089 
Ly       = 24.603089 Lz       = 24.603089 Density  = 1.028470 
Volume   = 14892.544086 
---------------- Step   180000 ----- CPU =    106.7048 (sec) ----------------
Time     = 900000.000000 Temp     = 243.334743 Press    = 971.815572 
PotEng   = -10.354016 KinEng   = 0.723918 Lx       = 24.668687 
Ly       = 24.668687 Lz       = 24.668687 Density  = 1.020287 
Volume   = 15011.984125 
---------------- Step   190000 ----- CPU =    112.6637 (sec) ----------------
Time     = 950000.000000 Temp     = 251.493841 Press    = 431.846779 
PotEng   = -10.309404 KinEng   = 0.748191 Lx       = 24.642214 
Ly       = 24.642214 Lz       = 24.642214 Density  = 1.023579 
Volume   = 14963.706098 
---------------- Step   200000 ----- CPU =    118.6414 (sec) ----------------
Time     = 1000000.000000 Temp     = 249.287475 Press    = 1003.065959 
PotEng   = -10.325549 KinEng   = 0.741627 Lx       = 24.565822 
Ly       = 24.565822 Lz       = 24.565822 Density  = 1.033158 
Volume   = 14824.973561 
---------------- Step   210000 ----- CPU =    124.6243 (sec) ----------------
Time     = 1050000.000000 Temp     = 259.479460 Press    = -215.138320 
PotEng   = -10.325478 KinEng   = 0.771948 Lx       = 24.724881 
Ly       = 24.724881 Lz       = 24.724881 Density  = 1.013346 
Volume   = 15114.806998 
---------------- Step   220000 ----- CPU =    130.6147 (sec) ----------------
Time     = 1100000.000000 Temp     = 249.132868 Press    = 824.668429 
PotEng   = -10.294216 KinEng   = 0.741167 Lx       = 24.695787 
Ly       = 24.695787 Lz       = 24.695787 Density  = 1.016932 
Volume   = 15061.513221 
---------------- Step   230000 ----- CPU =    136.5575 (sec) ----------------
Time     = 1150000.000000 Temp     = 245.417992 Press    = 947.338127 
PotEng   = -10.327795 KinEng   = 0.730116 Lx       = 24.635432 
Ly       = 24.635432 Lz       = 24.635432 Density  = 1.024425 
Volume   = 14951.355019 
---------------- Step   240000 ----- CPU =    142.5296 (sec) ----------------
Time     = 1200000.000000 Temp     = 230.648857 Press    = 1337.732934 
PotEng   = -10.408885 KinEng   = 0.686178 Lx       = 24.703011 
Ly       = 24.703011 Lz       = 24.703011 Density  = 1.016040 
Volume   = 15074.735418 
---------------- Step   250000 ----- CPU =    148.4406 (sec) ----------------
Time     = 1250000.000000 Temp     = 267.092612 Press    = 1424.809643 
PotEng   = -10.336598 KinEng   = 0.794597 Lx       = 24.680087 
Ly       = 24.680087 Lz       = 24.680087 Density  = 1.018874 
Volume   = 15032.805582 
---------------- Step   260000 ----- CPU =    154.3892 (sec) ----------------
Time     = 1300000.000000 Temp     = 250.134749 Press    = 1008.918885 
PotEng   = -10.340559 KinEng   = 0.744148 Lx       = 24.662902 
Ly       = 24.662902 Lz       = 24.662902 Density  = 1.021005 
Volume   = 15001.426280 
---------------- Step   270000 ----- CPU =    160.2928 (sec) ----------------
Time     = 1350000.000000 Temp     = 252.334902 Press    = 680.969093 
PotEng   = -10.363649 KinEng   = 0.750693 Lx       = 24.744310 
Ly       = 24.744310 Lz       = 24.744310 Density  = 1.010961 
Volume   = 15150.468715 
---------------- Step   280000 ----- CPU =    166.2217 (sec) ----------------
Time     = 1400000.000000 Temp     = 259.136391 Press    = 1238.085797 
PotEng   = -10.309945 KinEng   = 0.770928 Lx       = 24.620717 
Ly       = 24.620717 Lz       = 24.620717 Density  = 1.026262 
Volume   = 14924.579886 
---------------- Step   290000 ----- CPU =    172.1910 (sec) ----------------
Time     = 1450000.000000 Temp     = 239.675184 Press    = 467.026729 
PotEng   = -10.386444 KinEng   = 0.713031 Lx       = 24.662928 
Ly       = 24.662928 Lz       = 24.662928 Density  = 1.021002 
Volume   = 15001.472743 
---------------- Step   300000 ----- CPU =    178.1390 (sec) ----------------
Time     = 1500000.000000 Temp     = 247.842843 Press    = 665.292658 
PotEng   = -10.348405 KinEng   = 0.737330 Lx       = 24.647927 
Ly       = 24.647927 Lz       = 24.647927 Density  = 1.022867 
Volume   = 14974.115516 
---------------- Step   310000 ----- CPU =    184.1429 (sec) ----------------
Time     = 1550000.000000 Temp     = 249.121610 Press    = 352.364506 
PotEng   = -10.381769 KinEng   = 0.741134 Lx       = 24.652883 
Ly       = 24.652883 Lz       = 24.652883 Density  = 1.022251 
Volume   = 14983.150568 
---------------- Step   320000 ----- CPU =    190.0734 (sec) ----------------
Time     = 1600000.000000 Temp     = 250.271390 Press    = 1793.152572 
PotEng   = -10.315019 KinEng   = 0.744554 Lx       = 24.729229 
Ly       = 24.729229 Lz       = 24.729229 Density  = 1.012812 
Volume   = 15122.783655 
---------------- Step   330000 ----- CPU =    196.0073 (sec) ----------------
Time     = 1650000.000000 Temp     = 260.722353 Press    = 1044.485061 
PotEng   = -10.362689 KinEng   = 0.775646 Lx       = 24.650729 
Ly       = 24.650729 Lz       = 24.650729 Density  = 1.022519 
Volume   = 14979.222782 
---------------- Step   340000 ----- CPU =    201.9427 (sec) ----------------
Time     = 1700000.000000 Temp     = 232.650396 Press    = 995.498265 
PotEng   = -10.348023 KinEng   = 0.692132 Lx       = 24.622313 
Ly       = 24.622313 Lz       = 24.622313 Density  = 1.026063 
Volume   = 14927.480864 
---------------- Step   350000 ----- CPU =    207.8589 (sec) ----------------
Time     = 1750000.000000 Temp     = 256.441419 Press    = 826.312167 
PotEng   = -10.333210 KinEng   = 0.762910 Lx       = 24.611656 
Ly       = 24.611656 Lz       = 24.611656 Density  = 1.027396 
Volume   = 14908.107324 
---------------- Step   360000 ----- CPU =    213.7998 (sec) ----------------
Time     = 1800000.000000 Temp     = 246.017434 Press    = -287.611203 
PotEng   = -10.409282 KinEng   = 0.731899 Lx       = 24.685947 
Ly       = 24.685947 Lz       = 24.685947 Density  = 1.018149 
Volume   = 15043.517322 
---------------- Step   370000 ----- CPU =    219.7062 (sec) ----------------
Time     = 1850000.000000 Temp     = 242.196054 Press    = 119.006701 
PotEng   = -10.409881 KinEng   = 0.720530 Lx       = 24.813910 
Ly       = 24.813910 Lz       = 24.813910 Density  = 1.002478 
Volume   = 15278.672633 
---------------- Step   380000 ----- CPU =    225.6294 (sec) ----------------
Time     = 1900000.000000 Temp     = 260.464758 Press    = 71.569106 
PotEng   = -10.402076 KinEng   = 0.774880 Lx       = 24.740998 
Ly       = 24.740998 Lz       = 24.740998 Density  = 1.011367 
Volume   = 15144.385601 
---------------- Step   390000 ----- CPU =    231.6004 (sec) ----------------
Time     = 1950000.000000 Temp     = 232.934690 Press    = 1639.728740 
PotEng   = -10.312717 KinEng   = 0.692978 Lx       = 24.626632 
Ly       = 24.626632 Lz       = 24.626632 Density  = 1.025523 
Volume   = 14935.338020 
---------------- Step   400000 ----- CPU =    237.5298 (sec) ----------------
Time     = 2000000.000000 Temp     = 268.486489 Press    = 219.624656 
PotEng   = -10.348051 KinEng   = 0.798744 Lx       = 24.712989 
Ly       = 24.712989 Lz       = 24.712989 Density  = 1.014810 
Volume   = 15093.008741 
---------------- Step   410000 ----- CPU =    243.5090 (sec) ----------------
Time     = 2050000.000000 Temp     = 265.790831 Press    = 656.451204 
PotEng   = -10.324566 KinEng   = 0.790725 Lx       = 24.691851 
Ly       = 24.691851 Lz       = 24.691851 Density  = 1.017418 
Volume   = 15054.313205 
---------------- Step   420000 ----- CPU =    249.4686 (sec) ----------------
Time     = 2100000.000000 Temp     = 250.285802 Press    = 854.732614 
PotEng   = -10.349270 KinEng   = 0.744597 Lx       = 24.690358 
Ly       = 24.690358 Lz       = 24.690358 Density  = 1.017603 
Volume   = 15051.582119 
---------------- Step   430000 ----- CPU =    255.4096 (sec) ----------------
Time     = 2150000.000000 Temp     = 258.111999 Press    = 1790.172541 
PotEng   = -10.413328 KinEng   = 0.767880 Lx       = 24.634200 
Ly       = 24.634200 Lz       = 24.634200 Density  = 1.024578 
Volume   = 14949.112375 
---------------- Step   440000 ----- CPU =    261.3407 (sec) ----------------
Time     = 2200000.000000 Temp     = 247.728782 Press    = 1450.568719 
PotEng   = -10.422403 KinEng   = 0.736990 Lx       = 24.674381 
Ly       = 24.674381 Lz       = 24.674381 Density  = 1.019581 
Volume   = 15022.381801 
---------------- Step   450000 ----- CPU =    267.2916 (sec) ----------------
Time     = 2250000.000000 Temp     = 253.412102 Press    = 1766.962501 
PotEng   = -10.388430 KinEng   = 0.753898 Lx       = 24.600130 
Ly       = 24.600130 Lz       = 24.600130 Density  = 1.028841 
Volume   = 14887.171354 
---------------- Step   460000 ----- CPU =    273.2308 (sec) ----------------
Time     = 2300000.000000 Temp     = 253.893494 Press    = -10.762228 
PotEng   = -10.308348 KinEng   = 0.755330 Lx       = 24.659088 
Ly       = 24.659088 Lz       = 24.659088 Density  = 1.021479 
Volume   = 14994.467673 
---------------- Step   470000 ----- CPU =    279.1193 (sec) ----------------
Time     = 2350000.000000 Temp     = 235.714724 Press    = 1680.921718 
PotEng   = -10.358192 KinEng   = 0.701249 Lx       = 24.608129 
Ly       = 24.608129 Lz       = 24.608129 Density  = 1.027838 
Volume   = 14901.699017 
---------------- Step   480000 ----- CPU =    285.1082 (sec) ----------------
Time     = 2400000.000000 Temp     = 240.771696 Press    = 952.471208 
PotEng   = -10.348776 KinEng   = 0.716293 Lx       = 24.670523 
Ly       = 24.670523 Lz       = 24.670523 Density  = 1.020059 
Volume   = 15015.337089 
---------------- Step   490000 ----- CPU =    291.0424 (sec) ----------------
Time     = 2450000.000000 Temp     = 249.843393 Press    = 735.039890 
PotEng   = -10.319967 KinEng   = 0.743281 Lx       = 24.688165 
Ly       = 24.688165 Lz       = 24.688165 Density  = 1.017874 
Volume   = 15047.572006 
---------------- Step   500000 ----- CPU =    296.9826 (sec) ----------------
Time     = 2500000.000000 Temp     = 231.473597 Press    = 47.855508 
PotEng   = -10.371186 KinEng   = 0.688631 Lx       = 24.643870 
Ly       = 24.643870 Lz       = 24.643870 Density  = 1.023373 
Volume   = 14966.723776 
---------------- Step   510000 ----- CPU =    302.9415 (sec) ----------------
Time     = 2550000.000000 Temp     = 259.933331 Press    = 501.657738 
PotEng   = -10.303816 KinEng   = 0.773299 Lx       = 24.678225 
Ly       = 24.678225 Lz       = 24.678225 Density  = 1.019105 
Volume   = 15029.404771 
---------------- Step   520000 ----- CPU =    308.9124 (sec) ----------------
Time     = 2600000.000000 Temp     = 250.896699 Press    = 1463.673533 
PotEng   = -10.356272 KinEng   = 0.746415 Lx       = 24.715225 
Ly       = 24.715225 Lz       = 24.715225 Density  = 1.014535 
Volume   = 15097.105525 
---------------- Step   530000 ----- CPU =    314.8710 (sec) ----------------
Time     = 2650000.000000 Temp     = 252.029638 Press    = 904.790670 
PotEng   = -10.369396 KinEng   = 0.749785 Lx       = 24.701063 
Ly       = 24.701063 Lz       = 24.701063 Density  = 1.016280 
Volume   = 15071.168566 
---------------- Step   540000 ----- CPU =    320.7943 (sec) ----------------
Time     = 2700000.000000 Temp     = 265.763702 Press    = 1214.913363 
PotEng   = -10.324789 KinEng   = 0.790644 Lx       = 24.683713 
Ly       = 24.683713 Lz       = 24.683713 Density  = 1.018425 
Volume   = 15039.433147 
---------------- Step   550000 ----- CPU =    326.7256 (sec) ----------------
Time     = 2750000.000000 Temp     = 252.838936 Press    = 396.747308 
PotEng   = -10.363289 KinEng   = 0.752193 Lx       = 24.609724 
Ly       = 24.609724 Lz       = 24.609724 Density  = 1.027638 
Volume   = 14904.596102 
---------------- Step   560000 ----- CPU =    332.6354 (sec) ----------------
Time     = 2800000.000000 Temp     = 250.326203 Press    = 874.332270 
PotEng   = -10.366179 KinEng   = 0.744717 Lx       = 24.767621 
Ly       = 24.767621 Lz       = 24.767621 Density  = 1.008109 
Volume   = 15193.326518 
---------------- Step   570000 ----- CPU =    338.5705 (sec) ----------------
Time     = 2850000.000000 Temp     = 247.416588 Press    = 120.662401 
PotEng   = -10.358366 KinEng   = 0.736061 Lx       = 24.703469 
Ly       = 24.703469 Lz       = 24.703469 Density  = 1.015984 
Volume   = 15075.572729 
---------------- Step   580000 ----- CPU =    344.5246 (sec) ----------------
Time     = 2900000.000000 Temp     = 251.692084 Press    = 758.294578 
PotEng   = -10.341761 KinEng   = 0.748781 Lx       = 24.645882 
Ly       = 24.645882 Lz       = 24.645882 Density  = 1.023122 
Volume   = 14970.390175 
---------------- Step   590000 ----- CPU =    350.4133 (sec) ----------------
Time     = 2950000.000000 Temp     = 251.623401 Press    = 935.124728 
PotEng   = -10.254274 KinEng   = 0.748577 Lx       = 24.597648 
Ly       = 24.597648 Lz       = 24.597648 Density  = 1.029153 
Volume   = 14882.666745 
---------------- Step   600000 ----- CPU =    356.3610 (sec) ----------------
Time     = 3000000.000000 Temp     = 246.204321 Press    = 1737.192282 
PotEng   = -10.323337 KinEng   = 0.732455 Lx       = 24.720853 
Ly       = 24.720853 Lz       = 24.720853 Density  = 1.013842 
Volume   = 15107.421867 
---------------- Step   610000 ----- CPU =    362.3425 (sec) ----------------
Time     = 3050000.000000 Temp     = 247.827694 Press    = 804.014680 
PotEng   = -10.337716 KinEng   = 0.737284 Lx       = 24.668672 
Ly       = 24.668672 Lz       = 24.668672 Density  = 1.020289 
Volume   = 15011.957467 
---------------- Step   620000 ----- CPU =    368.2958 (sec) ----------------
Time     = 3100000.000000 Temp     = 253.620623 Press    = 575.439573 
PotEng   = -10.293424 KinEng   = 0.754518 Lx       = 24.688355 
Ly       = 24.688355 Lz       = 24.688355 Density  = 1.017851 
Volume   = 15047.919638 
---------------- Step   630000 ----- CPU =    374.2302 (sec) ----------------
Time     = 3150000.000000 Temp     = 252.520485 Press    = -86.653695 
PotEng   = -10.328913 KinEng   = 0.751245 Lx       = 24.810315 
Ly       = 24.810315 Lz       = 24.810315 Density  = 1.002914 
Volume   = 15272.032198 
---------------- Step   640000 ----- CPU =    380.1494 (sec) ----------------
Time     = 3200000.000000 Temp     = 237.598988 Press    = 1820.978419 
PotEng   = -10.345961 KinEng   = 0.706854 Lx       = 24.609646 
Ly       = 24.609646 Lz       = 24.609646 Density  = 1.027648 
Volume   = 14904.455668 
---------------- Step   650000 ----- CPU =    386.1434 (sec) ----------------
Time     = 3250000.000000 Temp     = 246.755696 Press    = -246.736668 
PotEng   = -10.290593 KinEng   = 0.734095 Lx       = 24.729589 
Ly       = 24.729589 Lz       = 24.729589 Density  = 1.012768 
Volume   = 15123.443641 
---------------- Step   660000 ----- CPU =    392.0995 (sec) ----------------
Time     = 3300000.000000 Temp     = 249.896094 Press    = 942.181535 
PotEng   = -10.367856 KinEng   = 0.743438 Lx       = 24.632632 
Ly       = 24.632632 Lz       = 24.632632 Density  = 1.024774 
Volume   = 14946.256806 
---------------- Step   670000 ----- CPU =    398.0271 (sec) ----------------
Time     = 3350000.000000 Temp     = 240.041086 Press    = 1741.332511 
PotEng   = -10.357308 KinEng   = 0.714119 Lx       = 24.631688 
Ly       = 24.631688 Lz       = 24.631688 Density  = 1.024892 
Volume   = 14944.538464 
---------------- Step   680000 ----- CPU =    403.9553 (sec) ----------------
Time     = 3400000.000000 Temp     = 249.941035 Press    = -431.573537 
PotEng   = -10.367840 KinEng   = 0.743572 Lx       = 24.758741 
Ly       = 24.758741 Lz       = 24.758741 Density  = 1.009194 
Volume   = 15176.990941 
---------------- Step   690000 ----- CPU =    409.8790 (sec) ----------------
Time     = 3450000.000000 Temp     = 235.556825 Press    = 1630.507858 
PotEng   = -10.336889 KinEng   = 0.700779 Lx       = 24.573182 
Ly       = 24.573182 Lz       = 24.573182 Density  = 1.032230 
Volume   = 14838.301361 
---------------- Step   700000 ----- CPU =    415.7868 (sec) ----------------
Time     = 3500000.000000 Temp     = 272.727244 Press    = 1411.800118 
PotEng   = -10.367316 KinEng   = 0.811360 Lx       = 24.593038 
Ly       = 24.593038 Lz       = 24.593038 Density  = 1.029731 
Volume   = 14874.299799 
---------------- Step   710000 ----- CPU =    421.7447 (sec) ----------------
Time     = 3550000.000000 Temp     = 235.612706 Press    = 1395.163419 
PotEng   = -10.295132 KinEng   = 0.700945 Lx       = 24.599009 
Ly       = 24.599009 Lz       = 24.599009 Density  = 1.028982 
Volume   = 14885.137344 
---------------- Step   720000 ----- CPU =    427.6889 (sec) ----------------
Time     = 3600000.000000 Temp     = 261.145263 Press    = 811.811857 
PotEng   = -10.277271 KinEng   = 0.776904 Lx       = 24.709176 
Ly       = 24.709176 Lz       = 24.709176 Density  = 1.015280 
Volume   = 15086.022946 
---------------- Step   730000 ----- CPU =    433.6330 (sec) ----------------
Time     = 3650000.000000 Temp     = 256.743258 Press    = 1252.507022 
PotEng   = -10.373138 KinEng   = 0.763808 Lx       = 24.586249 
Ly       = 24.586249 Lz       = 24.586249 Density  = 1.030585 
Volume   = 14861.984619 
---------------- Step   740000 ----- CPU =    439.5502 (sec) ----------------
Time     = 3700000.000000 Temp     = 240.041604 Press    = 1293.128148 
PotEng   = -10.403109 KinEng   = 0.714121 Lx       = 24.632408 
Ly       = 24.632408 Lz       = 24.632408 Density  = 1.024802 
Volume   = 14945.850321 
---------------- Step   750000 ----- CPU =    445.5026 (sec) ----------------
Time     = 3750000.000000 Temp     = 262.975063 Press    = 926.651675 
PotEng   = -10.382759 KinEng   = 0.782348 Lx       = 24.619509 
Ly       = 24.619509 Lz       = 24.619509 Density  = 1.026413 
Volume   = 14922.383123 
---------------- Step   760000 ----- CPU =    451.4498 (sec) ----------------
Time     = 3800000.000000 Temp     = 236.820985 Press    = 359.848905 
PotEng   = -10.330228 KinEng   = 0.704540 Lx       = 24.658320 
Ly       = 24.658320 Lz       = 24.658320 Density  = 1.021575 
Volume   = 14993.066692 
---------------- Step   770000 ----- CPU =    457.4276 (sec) ----------------
Time     = 3850000.000000 Temp     = 255.682719 Press    = 2109.711291 
PotEng   = -10.336000 KinEng   = 0.760653 Lx       = 24.566375 
Ly       = 24.566375 Lz       = 24.566375 Density  = 1.033088 
Volume   = 14825.974024 
---------------- Step   780000 ----- CPU =    463.3759 (sec) ----------------
Time     = 3900000.000000 Temp     = 250.178674 Press    = 1177.857700 
PotEng   = -10.343520 KinEng   = 0.744279 Lx       = 24.643340 
Ly       = 24.643340 Lz       = 24.643340 Density  = 1.023439 
Volume   = 14965.756767 
---------------- Step   790000 ----- CPU =    469.3013 (sec) ----------------
Time     = 3950000.000000 Temp     = 259.715451 Press    = 1911.283088 
PotEng   = -10.305450 KinEng   = 0.772650 Lx       = 24.583393 
Ly       = 24.583393 Lz       = 24.583393 Density  = 1.030944 
Volume   = 14856.806242 
---------------- Step   800000 ----- CPU =    475.3094 (sec) ----------------
Time     = 4000000.000000 Temp     = 246.085756 Press    = 755.575164 
PotEng   = -10.357545 KinEng   = 0.732102 Lx       = 24.629075 
Ly       = 24.629075 Lz       = 24.629075 Density  = 1.025218 
Volume   = 14939.784006 
---------------- Step   810000 ----- CPU =    481.2399 (sec) ----------------
Time     = 4050000.000000 Temp     = 248.664073 Press    = 425.372174 
PotEng   = -10.341463 KinEng   = 0.739773 Lx       = 24.660079 
Ly       = 24.660079 Lz       = 24.660079 Density  = 1.021356 
Volume   = 14996.275455 
---------------- Step   820000 ----- CPU =    487.1790 (sec) ----------------
Time     = 4100000.000000 Temp     = 240.226811 Press    = 1258.515740 
PotEng   = -10.324104 KinEng   = 0.714672 Lx       = 24.709302 
Ly       = 24.709302 Lz       = 24.709302 Density  = 1.015264 
Volume   = 15086.253730 
---------------- Step   830000 ----- CPU =    493.0882 (sec) ----------------
Time     = 4150000.000000 Temp     = 244.809882 Press    = -148.529754 
PotEng   = -10.445963 KinEng   = 0.728306 Lx       = 24.674808 
Ly       = 24.674808 Lz       = 24.674808 Density  = 1.019528 
Volume   = 15023.161792 
---------------- Step   840000 ----- CPU =    499.0383 (sec) ----------------
Time     = 4200000.000000 Temp     = 255.905226 Press    = 220.672426 
PotEng   = -10.394633 KinEng   = 0.761315 Lx       = 24.664620 
Ly       = 24.664620 Lz       = 24.664620 Density  = 1.020792 
Volume   = 15004.560936 
---------------- Step   850000 ----- CPU =    504.9620 (sec) ----------------
Time     = 4250000.000000 Temp     = 234.217721 Press    = 836.722196 
PotEng   = -10.378630 KinEng   = 0.696795 Lx       = 24.617368 
Ly       = 24.617368 Lz       = 24.617368 Density  = 1.026681 
Volume   = 14918.490245 
---------------- Step   860000 ----- CPU =    510.9128 (sec) ----------------
Time     = 4300000.000000 Temp     = 252.417232 Press    = 1306.864714 
PotEng   = -10.338557 KinEng   = 0.750938 Lx       = 24.665458 
Ly       = 24.665458 Lz       = 24.665458 Density  = 1.020688 
Volume   = 15006.090484 
---------------- Step   870000 ----- CPU =    516.8395 (sec) ----------------
Time     = 4350000.000000 Temp     = 241.950704 Press    = 1142.592860 
PotEng   = -10.377106 KinEng   = 0.719800 Lx       = 24.599338 
Ly       = 24.599338 Lz       = 24.599338 Density  = 1.028940 
Volume   = 14885.734490 
---------------- Step   880000 ----- CPU =    522.8288 (sec) ----------------
Time     = 4400000.000000 Temp     = 250.608074 Press    = 1552.403834 
PotEng   = -10.444062 KinEng   = 0.745556 Lx       = 24.626109 
Ly       = 24.626109 Lz       = 24.626109 Density  = 1.025589 
Volume   = 14934.386049 
---------------- Step   890000 ----- CPU =    528.7674 (sec) ----------------
Time     = 4450000.000000 Temp     = 260.163048 Press    = 1966.048431 
PotEng   = -10.301556 KinEng   = 0.773982 Lx       = 24.655613 
Ly       = 24.655613 Lz       = 24.655613 Density  = 1.021911 
Volume   = 14988.128287 
---------------- Step   900000 ----- CPU =    534.7264 (sec) ----------------
Time     = 4500000.000000 Temp     = 258.621978 Press    = 1335.527320 
PotEng   = -10.309905 KinEng   = 0.769397 Lx       = 24.649362 
Ly       = 24.649362 Lz       = 24.649362 Density  = 1.022689 
Volume   = 14976.732506 
---------------- Step   910000 ----- CPU =    540.6811 (sec) ----------------
Time     = 4550000.000000 Temp     = 253.339614 Press    = 1747.685047 
PotEng   = -10.388623 KinEng   = 0.753682 Lx       = 24.601419 
Ly       = 24.601419 Lz       = 24.601419 Density  = 1.028679 
Volume   = 14889.513128 
---------------- Step   920000 ----- CPU =    546.6568 (sec) ----------------
Time     = 4600000.000000 Temp     = 241.032693 Press    = 922.298739 
PotEng   = -10.329528 KinEng   = 0.717069 Lx       = 24.752748 
Ly       = 24.752748 Lz       = 24.752748 Density  = 1.009928 
Volume   = 15165.973086 
---------------- Step   930000 ----- CPU =    552.5646 (sec) ----------------
Time     = 4650000.000000 Temp     = 247.493930 Press    = 1612.512800 
PotEng   = -10.333509 KinEng   = 0.736292 Lx       = 24.647624 
Ly       = 24.647624 Lz       = 24.647624 Density  = 1.022905 
Volume   = 14973.563643 
---------------- Step   940000 ----- CPU =    558.4979 (sec) ----------------
Time     = 4700000.000000 Temp     = 234.550579 Press    = 379.301604 
PotEng   = -10.341039 KinEng   = 0.697785 Lx       = 24.690681 
Ly       = 24.690681 Lz       = 24.690681 Density  = 1.017563 
Volume   = 15052.174004 
---------------- Step   950000 ----- CPU =    564.4217 (sec) ----------------
Time     = 4750000.000000 Temp     = 264.473474 Press    = 1093.617814 
PotEng   = -10.294893 KinEng   = 0.786805 Lx       = 24.582648 
Ly       = 24.582648 Lz       = 24.582648 Density  = 1.031038 
Volume   = 14855.455155 
---------------- Step   960000 ----- CPU =    570.3596 (sec) ----------------
Time     = 4800000.000000 Temp     = 245.208404 Press    = 219.139278 
PotEng   = -10.356955 KinEng   = 0.729492 Lx       = 24.724055 
Ly       = 24.724055 Lz       = 24.724055 Density  = 1.013448 
Volume   = 15113.292701 
---------------- Step   970000 ----- CPU =    576.2811 (sec) ----------------
Time     = 4850000.000000 Temp     = 249.291500 Press    = 2575.885605 
PotEng   = -10.333170 KinEng   = 0.741639 Lx       = 24.583659 
Ly       = 24.583659 Lz       = 24.583659 Density  = 1.030910 
Volume   = 14857.289103 
---------------- Step   980000 ----- CPU =    582.1891 (sec) ----------------
Time     = 4900000.000000 Temp     = 253.386837 Press    = 1042.748849 
PotEng   = -10.362556 KinEng   = 0.753823 Lx       = 24.703603 
Ly       = 24.703603 Lz       = 24.703603 Density  = 1.015967 
Volume   = 15075.818015 
---------------- Step   990000 ----- CPU =    588.1539 (sec) ----------------
Time     = 4950000.000000 Temp     = 248.546230 Press    = 511.751759 
PotEng   = -10.408673 KinEng   = 0.739422 Lx       = 24.624115 
Ly       = 24.624115 Lz       = 24.624115 Density  = 1.025838 
Volume   = 14930.759085 
---------------- Step  1000000 ----- CPU =    594.1298 (sec) ----------------
Time     = 5000000.000000 Temp     = 261.768088 Press    = 996.663536 
PotEng   = -10.349045 KinEng   = 0.778757 Lx       = 24.606380 
Ly       = 24.606380 Lz       = 24.606380 Density  = 1.028057 
Volume   = 14898.521148 
Loop time of 594.13 on 6 procs for 1000000 steps with 512 atoms

Performance: 727.114 ns/day, 0.033 hours/ns, 1683.134 timesteps/s
97.1% CPU use with 6 MPI tasks x no OpenMP threads

MPI task timing breakdown:
Section |  min time  |  avg time  |  max time  |%varavg| %total
---------------------------------------------------------------
Pair    | 503.13     | 505.09     | 508.9      |   8.5 | 85.01
Neigh   | 13.116     | 13.135     | 13.17      |   0.6 |  2.21
Comm    | 59.767     | 63.648     | 65.675     |  24.8 | 10.71
Output  | 0.0021334  | 0.0037393  | 0.011681   |   5.8 |  0.00
Modify  | 9.7727     | 10.074     | 10.343     |   5.7 |  1.70
Other   |            | 2.183      |            |       |  0.37

Nlocal:    85.3333 ave 94 max 79 min
Histogram: 1 0 1 0 2 1 0 0 0 1
Nghost:    578.833 ave 587 max 566 min
Histogram: 1 0 0 0 1 0 0 3 0 1
Neighs:    0 ave 0 max 0 min
Histogram: 6 0 0 0 0 0 0 0 0 0
FullNghs:  2904 ave 3241 max 2691 min
Histogram: 1 1 0 2 1 0 0 0 0 1

Total # of neighbors = 17424
Ave neighs/atom = 34.0312
Neighbor list builds = 58343
Dangerous builds = 0
#reset_timestep 0
#unfix 1  # Remove the fix (important!)

# ---- Custom dump ----
# Easier to analyze than LAMMP's log file

variable        engtot equal etotal
variable        utotal equal pe
variable        cellx equal lx
variable        kintemp equal temp
variable        virpress equal press
variable        massdensity equal density
variable 		volume equal vol

fix             thermodata all print 1000 "${massdensity}" file "Ref.density" screen no


# DCD trajectory (every 0.5 ps)
#dump            1 all dcd 5000 traj.dcd

# ----- Temperature/Pressure Controls -----
fix 1 all npt temp ${T} ${T} 100 iso ${P} ${P} 1000
fix 1 all npt temp 250 ${T} 100 iso ${P} ${P} 1000
fix 1 all npt temp 250 250 100 iso ${P} ${P} 1000
fix 1 all npt temp 250 250 100 iso 986.923 ${P} 1000
fix 1 all npt temp 250 250 100 iso 986.923 986.923 1000

run 4000000  # production 20 ns
Per MPI rank memory allocation (min/avg/max) = 2.945 | 2.946 | 2.946 Mbytes
---------------- Step  1000000 ----- CPU =      0.0000 (sec) ----------------
Time     = 5000000.000000 Temp     = 261.768088 Press    = 996.663536 
PotEng   = -10.349045 KinEng   = 0.778757 Lx       = 24.606380 
Ly       = 24.606380 Lz       = 24.606380 Density  = 1.028057 
Volume   = 14898.521148 
---------------- Step  1010000 ----- CPU =      5.9248 (sec) ----------------
Time     = 5050000.000000 Temp     = 252.701586 Press    = 984.662196 
PotEng   = -10.291476 KinEng   = 0.751784 Lx       = 24.728978 
Ly       = 24.728978 Lz       = 24.728978 Density  = 1.012843 
Volume   = 15122.322134 
---------------- Step  1020000 ----- CPU =     11.8776 (sec) ----------------
Time     = 5100000.000000 Temp     = 255.456600 Press    = 306.933507 
PotEng   = -10.363255 KinEng   = 0.759980 Lx       = 24.671587 
Ly       = 24.671587 Lz       = 24.671587 Density  = 1.019927 
Volume   = 15017.279136 
---------------- Step  1030000 ----- CPU =     17.8394 (sec) ----------------
Time     = 5150000.000000 Temp     = 239.990970 Press    = 10.713627 
PotEng   = -10.389804 KinEng   = 0.713970 Lx       = 24.707677 
Ly       = 24.707677 Lz       = 24.707677 Density  = 1.015465 
Volume   = 15083.277526 
---------------- Step  1040000 ----- CPU =     23.7669 (sec) ----------------
Time     = 5200000.000000 Temp     = 247.764290 Press    = 1944.825083 
PotEng   = -10.341546 KinEng   = 0.737096 Lx       = 24.630944 
Ly       = 24.630944 Lz       = 24.630944 Density  = 1.024985 
Volume   = 14943.184127 
---------------- Step  1050000 ----- CPU =     29.8092 (sec) ----------------
Time     = 5250000.000000 Temp     = 256.351686 Press    = 697.195176 
PotEng   = -10.329041 KinEng   = 0.762643 Lx       = 24.632409 
Ly       = 24.632409 Lz       = 24.632409 Density  = 1.024802 
Volume   = 14945.851453 
---------------- Step  1060000 ----- CPU =     35.7314 (sec) ----------------
Time     = 5300000.000000 Temp     = 261.957878 Press    = 426.411732 
PotEng   = -10.392636 KinEng   = 0.779322 Lx       = 24.656385 
Ly       = 24.656385 Lz       = 24.656385 Density  = 1.021815 
Volume   = 14989.537248 
---------------- Step  1070000 ----- CPU =     41.6790 (sec) ----------------
Time     = 5350000.000000 Temp     = 260.221106 Press    = 1382.597299 
PotEng   = -10.315820 KinEng   = 0.774155 Lx       = 24.632737 
Ly       = 24.632737 Lz       = 24.632737 Density  = 1.024761 
Volume   = 14946.448801 
---------------- Step  1080000 ----- CPU =     47.6145 (sec) ----------------
Time     = 5400000.000000 Temp     = 253.718257 Press    = 1753.184531 
PotEng   = -10.417690 KinEng   = 0.754809 Lx       = 24.571420 
Ly       = 24.571420 Lz       = 24.571420 Density  = 1.032452 
Volume   = 14835.109237 
---------------- Step  1090000 ----- CPU =     53.5410 (sec) ----------------
Time     = 5450000.000000 Temp     = 254.084254 Press    = 1323.722051 
PotEng   = -10.366915 KinEng   = 0.755898 Lx       = 24.652662 
Ly       = 24.652662 Lz       = 24.652662 Density  = 1.022278 
Volume   = 14982.746749 
---------------- Step  1100000 ----- CPU =     59.4970 (sec) ----------------
Time     = 5500000.000000 Temp     = 248.770475 Press    = 711.726157 
PotEng   = -10.339698 KinEng   = 0.740089 Lx       = 24.600357 
Ly       = 24.600357 Lz       = 24.600357 Density  = 1.028813 
Volume   = 14887.584177 
---------------- Step  1110000 ----- CPU =     65.4880 (sec) ----------------
Time     = 5550000.000000 Temp     = 246.135411 Press    = 1634.002300 
PotEng   = -10.395724 KinEng   = 0.732250 Lx       = 24.652516 
Ly       = 24.652516 Lz       = 24.652516 Density  = 1.022296 
Volume   = 14982.481707 
---------------- Step  1120000 ----- CPU =     71.4683 (sec) ----------------
Time     = 5600000.000000 Temp     = 252.856757 Press    = 914.460849 
PotEng   = -10.293783 KinEng   = 0.752246 Lx       = 24.642337 
Ly       = 24.642337 Lz       = 24.642337 Density  = 1.023564 
Volume   = 14963.930902 
---------------- Step  1130000 ----- CPU =     77.3499 (sec) ----------------
Time     = 5650000.000000 Temp     = 249.708091 Press    = 730.700031 
PotEng   = -10.279970 KinEng   = 0.742879 Lx       = 24.592427 
Ly       = 24.592427 Lz       = 24.592427 Density  = 1.029808 
Volume   = 14873.190728 
---------------- Step  1140000 ----- CPU =     83.3171 (sec) ----------------
Time     = 5700000.000000 Temp     = 251.238551 Press    = 909.730770 
PotEng   = -10.413191 KinEng   = 0.747432 Lx       = 24.585728 
Ly       = 24.585728 Lz       = 24.585728 Density  = 1.030650 
Volume   = 14861.040855 
---------------- Step  1150000 ----- CPU =     89.2924 (sec) ----------------
Time     = 5750000.000000 Temp     = 257.539146 Press    = 719.364182 
PotEng   = -10.294510 KinEng   = 0.766176 Lx       = 24.634251 
Ly       = 24.634251 Lz       = 24.634251 Density  = 1.024572 
Volume   = 14949.205332 
---------------- Step  1160000 ----- CPU =     95.2424 (sec) ----------------
Time     = 5800000.000000 Temp     = 252.042878 Press    = -119.445262 
PotEng   = -10.326084 KinEng   = 0.749825 Lx       = 24.869960 
Ly       = 24.869960 Lz       = 24.869960 Density  = 0.995715 
Volume   = 15382.441268 
---------------- Step  1170000 ----- CPU =    101.1523 (sec) ----------------
Time     = 5850000.000000 Temp     = 253.997146 Press    = 539.944618 
PotEng   = -10.291386 KinEng   = 0.755639 Lx       = 24.701892 
Ly       = 24.701892 Lz       = 24.701892 Density  = 1.016178 
Volume   = 15072.686099 
---------------- Step  1180000 ----- CPU =    107.0953 (sec) ----------------
Time     = 5900000.000000 Temp     = 244.986422 Press    = 2050.911363 
PotEng   = -10.358561 KinEng   = 0.728832 Lx       = 24.612235 
Ly       = 24.612235 Lz       = 24.612235 Density  = 1.027324 
Volume   = 14909.158825 
---------------- Step  1190000 ----- CPU =    113.0503 (sec) ----------------
Time     = 5950000.000000 Temp     = 254.501647 Press    = 381.872358 
PotEng   = -10.357995 KinEng   = 0.757139 Lx       = 24.687793 
Ly       = 24.687793 Lz       = 24.687793 Density  = 1.017920 
Volume   = 15046.892018 
---------------- Step  1200000 ----- CPU =    118.9683 (sec) ----------------
Time     = 6000000.000000 Temp     = 236.410028 Press    = 501.367261 
PotEng   = -10.322390 KinEng   = 0.703317 Lx       = 24.652114 
Ly       = 24.652114 Lz       = 24.652114 Density  = 1.022346 
Volume   = 14981.749125 
---------------- Step  1210000 ----- CPU =    125.0033 (sec) ----------------
Time     = 6050000.000000 Temp     = 250.059910 Press    = 584.003515 
PotEng   = -10.358445 KinEng   = 0.743925 Lx       = 24.670427 
Ly       = 24.670427 Lz       = 24.670427 Density  = 1.020071 
Volume   = 15015.160554 
---------------- Step  1220000 ----- CPU =    130.9398 (sec) ----------------
Time     = 6100000.000000 Temp     = 239.819232 Press    = 889.124898 
PotEng   = -10.327007 KinEng   = 0.713459 Lx       = 24.641789 
Ly       = 24.641789 Lz       = 24.641789 Density  = 1.023632 
Volume   = 14962.931663 
---------------- Step  1230000 ----- CPU =    136.9112 (sec) ----------------
Time     = 6150000.000000 Temp     = 252.435869 Press    = 1415.851738 
PotEng   = -10.341124 KinEng   = 0.750994 Lx       = 24.558752 
Ly       = 24.558752 Lz       = 24.558752 Density  = 1.034050 
Volume   = 14812.176535 
---------------- Step  1240000 ----- CPU =    142.8540 (sec) ----------------
Time     = 6200000.000000 Temp     = 254.526238 Press    = 803.491027 
PotEng   = -10.347704 KinEng   = 0.757213 Lx       = 24.714602 
Ly       = 24.714602 Lz       = 24.714602 Density  = 1.014611 
Volume   = 15095.963592 
---------------- Step  1250000 ----- CPU =    148.7546 (sec) ----------------
Time     = 6250000.000000 Temp     = 235.138057 Press    = 702.625922 
PotEng   = -10.381571 KinEng   = 0.699533 Lx       = 24.595280 
Ly       = 24.595280 Lz       = 24.595280 Density  = 1.029450 
Volume   = 14878.369377 
---------------- Step  1260000 ----- CPU =    154.7322 (sec) ----------------
Time     = 6300000.000000 Temp     = 251.920214 Press    = 1109.503379 
PotEng   = -10.335157 KinEng   = 0.749460 Lx       = 24.619783 
Ly       = 24.619783 Lz       = 24.619783 Density  = 1.026379 
Volume   = 14922.879778 
---------------- Step  1270000 ----- CPU =    160.6836 (sec) ----------------
Time     = 6350000.000000 Temp     = 253.922365 Press    = 2659.390454 
PotEng   = -10.287205 KinEng   = 0.755416 Lx       = 24.577171 
Ly       = 24.577171 Lz       = 24.577171 Density  = 1.031727 
Volume   = 14845.528753 
---------------- Step  1280000 ----- CPU =    166.6347 (sec) ----------------
Time     = 6400000.000000 Temp     = 271.119648 Press    = 1855.397791 
PotEng   = -10.339981 KinEng   = 0.806578 Lx       = 24.611367 
Ly       = 24.611367 Lz       = 24.611367 Density  = 1.027433 
Volume   = 14907.581255 
---------------- Step  1290000 ----- CPU =    172.5752 (sec) ----------------
Time     = 6450000.000000 Temp     = 256.092601 Press    = 2065.942481 
PotEng   = -10.265643 KinEng   = 0.761872 Lx       = 24.631614 
Ly       = 24.631614 Lz       = 24.631614 Density  = 1.024901 
Volume   = 14944.403963 
---------------- Step  1300000 ----- CPU =    178.5643 (sec) ----------------
Time     = 6500000.000000 Temp     = 246.772387 Press    = 1479.524335 
PotEng   = -10.380737 KinEng   = 0.734145 Lx       = 24.729298 
Ly       = 24.729298 Lz       = 24.729298 Density  = 1.012803 
Volume   = 15122.910553 
---------------- Step  1310000 ----- CPU =    184.5019 (sec) ----------------
Time     = 6550000.000000 Temp     = 242.389392 Press    = 1323.269931 
PotEng   = -10.378923 KinEng   = 0.721106 Lx       = 24.609376 
Ly       = 24.609376 Lz       = 24.609376 Density  = 1.027682 
Volume   = 14903.963719 
---------------- Step  1320000 ----- CPU =    190.4943 (sec) ----------------
Time     = 6600000.000000 Temp     = 247.020073 Press    = 1637.891461 
PotEng   = -10.375080 KinEng   = 0.734882 Lx       = 24.510088 
Ly       = 24.510088 Lz       = 24.510088 Density  = 1.040222 
Volume   = 14724.297895 
---------------- Step  1330000 ----- CPU =    196.4383 (sec) ----------------
Time     = 6650000.000000 Temp     = 256.172227 Press    = 513.065723 
PotEng   = -10.295124 KinEng   = 0.762109 Lx       = 24.680651 
Ly       = 24.680651 Lz       = 24.680651 Density  = 1.018804 
Volume   = 15033.836579 
---------------- Step  1340000 ----- CPU =    202.3607 (sec) ----------------
Time     = 6700000.000000 Temp     = 240.716364 Press    = 741.231031 
PotEng   = -10.331458 KinEng   = 0.716128 Lx       = 24.659311 
Ly       = 24.659311 Lz       = 24.659311 Density  = 1.021451 
Volume   = 14994.874352 
---------------- Step  1350000 ----- CPU =    208.2627 (sec) ----------------
Time     = 6750000.000000 Temp     = 253.672955 Press    = 1804.240515 
PotEng   = -10.301535 KinEng   = 0.754674 Lx       = 24.641303 
Ly       = 24.641303 Lz       = 24.641303 Density  = 1.023692 
Volume   = 14962.047422 
---------------- Step  1360000 ----- CPU =    214.2045 (sec) ----------------
Time     = 6800000.000000 Temp     = 249.490439 Press    = 1724.254628 
PotEng   = -10.367731 KinEng   = 0.742231 Lx       = 24.589218 
Ly       = 24.589218 Lz       = 24.589218 Density  = 1.030211 
Volume   = 14867.369610 
---------------- Step  1370000 ----- CPU =    220.1274 (sec) ----------------
Time     = 6850000.000000 Temp     = 252.508959 Press    = 1313.920160 
PotEng   = -10.332262 KinEng   = 0.751211 Lx       = 24.653656 
Ly       = 24.653656 Lz       = 24.653656 Density  = 1.022154 
Volume   = 14984.560842 
---------------- Step  1380000 ----- CPU =    226.0449 (sec) ----------------
Time     = 6900000.000000 Temp     = 244.856445 Press    = 1343.546503 
PotEng   = -10.377790 KinEng   = 0.728445 Lx       = 24.636975 
Ly       = 24.636975 Lz       = 24.636975 Density  = 1.024232 
Volume   = 14954.163528 
---------------- Step  1390000 ----- CPU =    231.9827 (sec) ----------------
Time     = 6950000.000000 Temp     = 252.323525 Press    = 150.966484 
PotEng   = -10.324521 KinEng   = 0.750659 Lx       = 24.659858 
Ly       = 24.659858 Lz       = 24.659858 Density  = 1.021383 
Volume   = 14995.871273 
---------------- Step  1400000 ----- CPU =    237.9713 (sec) ----------------
Time     = 7000000.000000 Temp     = 234.900640 Press    = 1669.321327 
PotEng   = -10.351799 KinEng   = 0.698827 Lx       = 24.544864 
Ly       = 24.544864 Lz       = 24.544864 Density  = 1.035806 
Volume   = 14787.061947 
---------------- Step  1410000 ----- CPU =    243.8925 (sec) ----------------
Time     = 7050000.000000 Temp     = 243.451631 Press    = 1629.502639 
PotEng   = -10.310359 KinEng   = 0.724266 Lx       = 24.605675 
Ly       = 24.605675 Lz       = 24.605675 Density  = 1.028146 
Volume   = 14897.241977 
---------------- Step  1420000 ----- CPU =    249.8409 (sec) ----------------
Time     = 7100000.000000 Temp     = 249.377570 Press    = 669.092736 
PotEng   = -10.413809 KinEng   = 0.741895 Lx       = 24.623465 
Ly       = 24.623465 Lz       = 24.623465 Density  = 1.025919 
Volume   = 14929.576538 
---------------- Step  1430000 ----- CPU =    255.8036 (sec) ----------------
Time     = 7150000.000000 Temp     = 261.629594 Press    = 1127.202436 
PotEng   = -10.338208 KinEng   = 0.778345 Lx       = 24.651595 
Ly       = 24.651595 Lz       = 24.651595 Density  = 1.022411 
Volume   = 14980.801828 
---------------- Step  1440000 ----- CPU =    261.7282 (sec) ----------------
Time     = 7200000.000000 Temp     = 253.606665 Press    = 447.326510 
PotEng   = -10.384864 KinEng   = 0.754477 Lx       = 24.700371 
Ly       = 24.700371 Lz       = 24.700371 Density  = 1.016366 
Volume   = 15069.902930 
---------------- Step  1450000 ----- CPU =    267.6835 (sec) ----------------
Time     = 7250000.000000 Temp     = 236.452519 Press    = 1665.062109 
PotEng   = -10.366388 KinEng   = 0.703443 Lx       = 24.624248 
Ly       = 24.624248 Lz       = 24.624248 Density  = 1.025821 
Volume   = 14931.001274 
---------------- Step  1460000 ----- CPU =    273.6299 (sec) ----------------
Time     = 7300000.000000 Temp     = 253.598793 Press    = 1024.307071 
PotEng   = -10.332766 KinEng   = 0.754453 Lx       = 24.637625 
Ly       = 24.637625 Lz       = 24.637625 Density  = 1.024151 
Volume   = 14955.347056 
---------------- Step  1470000 ----- CPU =    279.6139 (sec) ----------------
Time     = 7350000.000000 Temp     = 244.211564 Press    = 1465.539689 
PotEng   = -10.304427 KinEng   = 0.726527 Lx       = 24.635049 
Ly       = 24.635049 Lz       = 24.635049 Density  = 1.024472 
Volume   = 14950.657024 
---------------- Step  1480000 ----- CPU =    285.4798 (sec) ----------------
Time     = 7400000.000000 Temp     = 253.467187 Press    = 368.748411 
PotEng   = -10.353209 KinEng   = 0.754062 Lx       = 24.698443 
Ly       = 24.698443 Lz       = 24.698443 Density  = 1.016604 
Volume   = 15066.372854 
---------------- Step  1490000 ----- CPU =    291.4045 (sec) ----------------
Time     = 7450000.000000 Temp     = 255.366692 Press    = 341.052680 
PotEng   = -10.360690 KinEng   = 0.759713 Lx       = 24.723522 
Ly       = 24.723522 Lz       = 24.723522 Density  = 1.013513 
Volume   = 15112.314899 
---------------- Step  1500000 ----- CPU =    297.3175 (sec) ----------------
Time     = 7500000.000000 Temp     = 232.124056 Press    = 1817.637434 
PotEng   = -10.352531 KinEng   = 0.690566 Lx       = 24.645661 
Ly       = 24.645661 Lz       = 24.645661 Density  = 1.023150 
Volume   = 14969.986287 
---------------- Step  1510000 ----- CPU =    303.2429 (sec) ----------------
Time     = 7550000.000000 Temp     = 248.157703 Press    = 1201.130086 
PotEng   = -10.344401 KinEng   = 0.738266 Lx       = 24.617654 
Ly       = 24.617654 Lz       = 24.617654 Density  = 1.026646 
Volume   = 14919.009542 
---------------- Step  1520000 ----- CPU =    309.2058 (sec) ----------------
Time     = 7600000.000000 Temp     = 240.569389 Press    = -146.761724 
PotEng   = -10.355258 KinEng   = 0.715691 Lx       = 24.721364 
Ly       = 24.721364 Lz       = 24.721364 Density  = 1.013779 
Volume   = 15108.359347 
---------------- Step  1530000 ----- CPU =    315.1818 (sec) ----------------
Time     = 7650000.000000 Temp     = 252.172614 Press    = 1781.273037 
PotEng   = -10.347241 KinEng   = 0.750211 Lx       = 24.568383 
Ly       = 24.568383 Lz       = 24.568383 Density  = 1.032835 
Volume   = 14829.609719 
---------------- Step  1540000 ----- CPU =    321.0665 (sec) ----------------
Time     = 7700000.000000 Temp     = 263.933866 Press    = 1310.204738 
PotEng   = -10.394333 KinEng   = 0.785200 Lx       = 24.672092 
Ly       = 24.672092 Lz       = 24.672092 Density  = 1.019865 
Volume   = 15018.201605 
---------------- Step  1550000 ----- CPU =    327.0348 (sec) ----------------
Time     = 7750000.000000 Temp     = 255.058517 Press    = 1944.789027 
PotEng   = -10.349834 KinEng   = 0.758796 Lx       = 24.532257 
Ly       = 24.532257 Lz       = 24.532257 Density  = 1.037404 
Volume   = 14764.289008 
---------------- Step  1560000 ----- CPU =    332.9644 (sec) ----------------
Time     = 7800000.000000 Temp     = 248.026031 Press    = 265.387897 
PotEng   = -10.360811 KinEng   = 0.737875 Lx       = 24.707957 
Ly       = 24.707957 Lz       = 24.707957 Density  = 1.015430 
Volume   = 15083.790431 
---------------- Step  1570000 ----- CPU =    338.8994 (sec) ----------------
Time     = 7850000.000000 Temp     = 258.683508 Press    = 1402.255594 
PotEng   = -10.296114 KinEng   = 0.769580 Lx       = 24.719280 
Ly       = 24.719280 Lz       = 24.719280 Density  = 1.014035 
Volume   = 15104.538394 
---------------- Step  1580000 ----- CPU =    344.8488 (sec) ----------------
Time     = 7900000.000000 Temp     = 241.505246 Press    = 1867.052165 
PotEng   = -10.385479 KinEng   = 0.718475 Lx       = 24.607568 
Ly       = 24.607568 Lz       = 24.607568 Density  = 1.027908 
Volume   = 14900.680354 
---------------- Step  1590000 ----- CPU =    350.7889 (sec) ----------------
Time     = 7950000.000000 Temp     = 255.730960 Press    = 505.989436 
PotEng   = -10.325766 KinEng   = 0.760797 Lx       = 24.696168 
Ly       = 24.696168 Lz       = 24.696168 Density  = 1.016885 
Volume   = 15062.209670 
---------------- Step  1600000 ----- CPU =    356.6912 (sec) ----------------
Time     = 8000000.000000 Temp     = 269.232834 Press    = 738.694612 
PotEng   = -10.294834 KinEng   = 0.800964 Lx       = 24.682943 
Ly       = 24.682943 Lz       = 24.682943 Density  = 1.018520 
Volume   = 15038.025010 
---------------- Step  1610000 ----- CPU =    362.6301 (sec) ----------------
Time     = 8050000.000000 Temp     = 245.799029 Press    = 763.065956 
PotEng   = -10.331966 KinEng   = 0.731249 Lx       = 24.685210 
Ly       = 24.685210 Lz       = 24.685210 Density  = 1.018240 
Volume   = 15042.169547 
---------------- Step  1620000 ----- CPU =    368.5665 (sec) ----------------
Time     = 8100000.000000 Temp     = 236.364238 Press    = 841.741586 
PotEng   = -10.326902 KinEng   = 0.703181 Lx       = 24.642451 
Ly       = 24.642451 Lz       = 24.642451 Density  = 1.023549 
Volume   = 14964.137388 
---------------- Step  1630000 ----- CPU =    374.5448 (sec) ----------------
Time     = 8150000.000000 Temp     = 256.287919 Press    = 715.711518 
PotEng   = -10.365424 KinEng   = 0.762454 Lx       = 24.574796 
Ly       = 24.574796 Lz       = 24.574796 Density  = 1.032026 
Volume   = 14841.225522 
---------------- Step  1640000 ----- CPU =    380.5768 (sec) ----------------
Time     = 8200000.000000 Temp     = 245.173087 Press    = -300.582572 
PotEng   = -10.390146 KinEng   = 0.729387 Lx       = 24.709079 
Ly       = 24.709079 Lz       = 24.709079 Density  = 1.015292 
Volume   = 15085.846219 
---------------- Step  1650000 ----- CPU =    386.5029 (sec) ----------------
Time     = 8250000.000000 Temp     = 259.832755 Press    = 439.381897 
PotEng   = -10.379943 KinEng   = 0.772999 Lx       = 24.668890 
Ly       = 24.668890 Lz       = 24.668890 Density  = 1.020262 
Volume   = 15012.354526 
---------------- Step  1660000 ----- CPU =    392.4537 (sec) ----------------
Time     = 8300000.000000 Temp     = 247.975337 Press    = 1921.150616 
PotEng   = -10.277500 KinEng   = 0.737724 Lx       = 24.645218 
Ly       = 24.645218 Lz       = 24.645218 Density  = 1.023205 
Volume   = 14969.178977 
---------------- Step  1670000 ----- CPU =    398.3832 (sec) ----------------
Time     = 8350000.000000 Temp     = 249.196276 Press    = 941.168738 
PotEng   = -10.325439 KinEng   = 0.741356 Lx       = 24.744742 
Ly       = 24.744742 Lz       = 24.744742 Density  = 1.010908 
Volume   = 15151.261053 
---------------- Step  1680000 ----- CPU =    404.3567 (sec) ----------------
Time     = 8400000.000000 Temp     = 259.613964 Press    = -21.099320 
PotEng   = -10.340945 KinEng   = 0.772348 Lx       = 24.694964 
Ly       = 24.694964 Lz       = 24.694964 Density  = 1.017034 
Volume   = 15060.006786 
---------------- Step  1690000 ----- CPU =    410.3041 (sec) ----------------
Time     = 8450000.000000 Temp     = 243.729915 Press    = 1766.382748 
PotEng   = -10.357384 KinEng   = 0.725094 Lx       = 24.639494 
Ly       = 24.639494 Lz       = 24.639494 Density  = 1.023918 
Volume   = 14958.752310 
---------------- Step  1700000 ----- CPU =    416.2636 (sec) ----------------
Time     = 8500000.000000 Temp     = 247.179215 Press    = 71.711588 
PotEng   = -10.306377 KinEng   = 0.735355 Lx       = 24.647340 
Ly       = 24.647340 Lz       = 24.647340 Density  = 1.022941 
Volume   = 14973.045413 
---------------- Step  1710000 ----- CPU =    422.2848 (sec) ----------------
Time     = 8550000.000000 Temp     = 243.200179 Press    = 518.728983 
PotEng   = -10.364648 KinEng   = 0.723518 Lx       = 24.698474 
Ly       = 24.698474 Lz       = 24.698474 Density  = 1.016600 
Volume   = 15066.430239 
---------------- Step  1720000 ----- CPU =    428.2531 (sec) ----------------
Time     = 8600000.000000 Temp     = 242.099860 Press    = -344.762824 
PotEng   = -10.381836 KinEng   = 0.720244 Lx       = 24.704726 
Ly       = 24.704726 Lz       = 24.704726 Density  = 1.015829 
Volume   = 15077.874549 
---------------- Step  1730000 ----- CPU =    434.1927 (sec) ----------------
Time     = 8650000.000000 Temp     = 249.759487 Press    = 1207.598756 
PotEng   = -10.312358 KinEng   = 0.743032 Lx       = 24.563286 
Ly       = 24.563286 Lz       = 24.563286 Density  = 1.033478 
Volume   = 14820.381629 
---------------- Step  1740000 ----- CPU =    440.2086 (sec) ----------------
Time     = 8700000.000000 Temp     = 267.318134 Press    = 1631.958196 
PotEng   = -10.352030 KinEng   = 0.795268 Lx       = 24.598223 
Ly       = 24.598223 Lz       = 24.598223 Density  = 1.029080 
Volume   = 14883.710275 
---------------- Step  1750000 ----- CPU =    446.1615 (sec) ----------------
Time     = 8750000.000000 Temp     = 260.108997 Press    = 1682.201431 
PotEng   = -10.330352 KinEng   = 0.773821 Lx       = 24.562575 
Ly       = 24.562575 Lz       = 24.562575 Density  = 1.033567 
Volume   = 14819.094779 
---------------- Step  1760000 ----- CPU =    452.1101 (sec) ----------------
Time     = 8800000.000000 Temp     = 243.247749 Press    = 874.091045 
PotEng   = -10.357797 KinEng   = 0.723659 Lx       = 24.607872 
Ly       = 24.607872 Lz       = 24.607872 Density  = 1.027870 
Volume   = 14901.231400 
---------------- Step  1770000 ----- CPU =    458.0735 (sec) ----------------
Time     = 8850000.000000 Temp     = 259.024167 Press    = 451.951026 
PotEng   = -10.348410 KinEng   = 0.770594 Lx       = 24.642833 
Ly       = 24.642833 Lz       = 24.642833 Density  = 1.023502 
Volume   = 14964.833889 
---------------- Step  1780000 ----- CPU =    464.0276 (sec) ----------------
Time     = 8900000.000000 Temp     = 237.695724 Press    = 2290.923536 
PotEng   = -10.427420 KinEng   = 0.707142 Lx       = 24.595232 
Ly       = 24.595232 Lz       = 24.595232 Density  = 1.029456 
Volume   = 14878.280882 
---------------- Step  1790000 ----- CPU =    469.9643 (sec) ----------------
Time     = 8950000.000000 Temp     = 247.576207 Press    = 1362.107329 
PotEng   = -10.352077 KinEng   = 0.736536 Lx       = 24.586845 
Ly       = 24.586845 Lz       = 24.586845 Density  = 1.030510 
Volume   = 14863.066670 
---------------- Step  1800000 ----- CPU =    475.9013 (sec) ----------------
Time     = 9000000.000000 Temp     = 254.223510 Press    = 1041.569959 
PotEng   = -10.356417 KinEng   = 0.756312 Lx       = 24.645298 
Ly       = 24.645298 Lz       = 24.645298 Density  = 1.023195 
Volume   = 14969.324603 
---------------- Step  1810000 ----- CPU =    481.8560 (sec) ----------------
Time     = 9050000.000000 Temp     = 229.624139 Press    = 1666.129958 
PotEng   = -10.361148 KinEng   = 0.683129 Lx       = 24.582434 
Ly       = 24.582434 Lz       = 24.582434 Density  = 1.031065 
Volume   = 14855.067322 
---------------- Step  1820000 ----- CPU =    487.8177 (sec) ----------------
Time     = 9100000.000000 Temp     = 253.854729 Press    = 2077.415967 
PotEng   = -10.364349 KinEng   = 0.755215 Lx       = 24.580962 
Ly       = 24.580962 Lz       = 24.580962 Density  = 1.031250 
Volume   = 14852.398957 
---------------- Step  1830000 ----- CPU =    493.7340 (sec) ----------------
Time     = 9150000.000000 Temp     = 241.940874 Press    = 680.488221 
PotEng   = -10.362680 KinEng   = 0.719771 Lx       = 24.638223 
Ly       = 24.638223 Lz       = 24.638223 Density  = 1.024076 
Volume   = 14956.436155 
---------------- Step  1840000 ----- CPU =    499.6637 (sec) ----------------
Time     = 9200000.000000 Temp     = 248.511593 Press    = 1631.961723 
PotEng   = -10.355415 KinEng   = 0.739319 Lx       = 24.628018 
Ly       = 24.628018 Lz       = 24.628018 Density  = 1.025350 
Volume   = 14937.860338 
---------------- Step  1850000 ----- CPU =    505.6154 (sec) ----------------
Time     = 9250000.000000 Temp     = 249.818799 Press    = 2091.758545 
PotEng   = -10.406267 KinEng   = 0.743208 Lx       = 24.640998 
Ly       = 24.640998 Lz       = 24.640998 Density  = 1.023730 
Volume   = 14961.491040 
---------------- Step  1860000 ----- CPU =    511.5749 (sec) ----------------
Time     = 9300000.000000 Temp     = 244.343746 Press    = 461.364042 
PotEng   = -10.323850 KinEng   = 0.726920 Lx       = 24.668546 
Ly       = 24.668546 Lz       = 24.668546 Density  = 1.020305 
Volume   = 15011.727011 
---------------- Step  1870000 ----- CPU =    517.4792 (sec) ----------------
Time     = 9350000.000000 Temp     = 235.550669 Press    = 2213.275314 
PotEng   = -10.400609 KinEng   = 0.700760 Lx       = 24.554637 
Ly       = 24.554637 Lz       = 24.554637 Density  = 1.034570 
Volume   = 14804.731475 
---------------- Step  1880000 ----- CPU =    523.4616 (sec) ----------------
Time     = 9400000.000000 Temp     = 252.522248 Press    = 787.988177 
PotEng   = -10.323825 KinEng   = 0.751251 Lx       = 24.612060 
Ly       = 24.612060 Lz       = 24.612060 Density  = 1.027346 
Volume   = 14908.841779 
---------------- Step  1890000 ----- CPU =    529.4449 (sec) ----------------
Time     = 9450000.000000 Temp     = 250.056417 Press    = 1408.448359 
PotEng   = -10.361049 KinEng   = 0.743915 Lx       = 24.574293 
Ly       = 24.574293 Lz       = 24.574293 Density  = 1.032090 
Volume   = 14840.314222 
---------------- Step  1900000 ----- CPU =    535.4074 (sec) ----------------
Time     = 9500000.000000 Temp     = 250.919331 Press    = 1901.607351 
PotEng   = -10.363448 KinEng   = 0.746482 Lx       = 24.648755 
Ly       = 24.648755 Lz       = 24.648755 Density  = 1.022764 
Volume   = 14975.624828 
---------------- Step  1910000 ----- CPU =    541.3946 (sec) ----------------
Time     = 9550000.000000 Temp     = 250.420515 Press    = 1291.638847 
PotEng   = -10.353512 KinEng   = 0.744998 Lx       = 24.593984 
Ly       = 24.593984 Lz       = 24.593984 Density  = 1.029613 
Volume   = 14876.016471 
---------------- Step  1920000 ----- CPU =    547.3199 (sec) ----------------
Time     = 9600000.000000 Temp     = 253.402513 Press    = 2260.386609 
PotEng   = -10.349622 KinEng   = 0.753869 Lx       = 24.562459 
Ly       = 24.562459 Lz       = 24.562459 Density  = 1.033582 
Volume   = 14818.885440 
---------------- Step  1930000 ----- CPU =    553.2780 (sec) ----------------
Time     = 9650000.000000 Temp     = 252.177750 Press    = 2169.268547 
PotEng   = -10.364296 KinEng   = 0.750226 Lx       = 24.583535 
Ly       = 24.583535 Lz       = 24.583535 Density  = 1.030926 
Volume   = 14857.064302 
---------------- Step  1940000 ----- CPU =    559.2186 (sec) ----------------
Time     = 9700000.000000 Temp     = 240.766687 Press    = 1148.787485 
PotEng   = -10.307536 KinEng   = 0.716278 Lx       = 24.722304 
Ly       = 24.722304 Lz       = 24.722304 Density  = 1.013663 
Volume   = 15110.082092 
---------------- Step  1950000 ----- CPU =    565.1890 (sec) ----------------
Time     = 9750000.000000 Temp     = 240.264468 Press    = 214.511510 
PotEng   = -10.327581 KinEng   = 0.714784 Lx       = 24.747091 
Ly       = 24.747091 Lz       = 24.747091 Density  = 1.010620 
Volume   = 15155.576200 
---------------- Step  1960000 ----- CPU =    571.1152 (sec) ----------------
Time     = 9800000.000000 Temp     = 244.204273 Press    = 743.508698 
PotEng   = -10.331048 KinEng   = 0.726505 Lx       = 24.568911 
Ly       = 24.568911 Lz       = 24.568911 Density  = 1.032768 
Volume   = 14830.565518 
---------------- Step  1970000 ----- CPU =    577.0353 (sec) ----------------
Time     = 9850000.000000 Temp     = 246.443306 Press    = 413.351856 
PotEng   = -10.302886 KinEng   = 0.733166 Lx       = 24.718261 
Ly       = 24.718261 Lz       = 24.718261 Density  = 1.014161 
Volume   = 15102.670651 
---------------- Step  1980000 ----- CPU =    582.9442 (sec) ----------------
Time     = 9900000.000000 Temp     = 268.705378 Press    = 808.477591 
PotEng   = -10.294757 KinEng   = 0.799395 Lx       = 24.753912 
Ly       = 24.753912 Lz       = 24.753912 Density  = 1.009785 
Volume   = 15168.112774 
---------------- Step  1990000 ----- CPU =    588.8291 (sec) ----------------
Time     = 9950000.000000 Temp     = 254.678861 Press    = 1067.001199 
PotEng   = -10.352438 KinEng   = 0.757667 Lx       = 24.692146 
Ly       = 24.692146 Lz       = 24.692146 Density  = 1.017382 
Volume   = 15054.851750 
---------------- Step  2000000 ----- CPU =    594.7235 (sec) ----------------
Time     = 10000000.000000 Temp     = 254.879862 Press    = 685.593728 
PotEng   = -10.413161 KinEng   = 0.758265 Lx       = 24.629752 
Ly       = 24.629752 Lz       = 24.629752 Density  = 1.025133 
Volume   = 14941.016323 
---------------- Step  2010000 ----- CPU =    600.6721 (sec) ----------------
Time     = 10050000.000000 Temp     = 230.632176 Press    = 535.306099 
PotEng   = -10.384907 KinEng   = 0.686128 Lx       = 24.664534 
Ly       = 24.664534 Lz       = 24.664534 Density  = 1.020803 
Volume   = 15004.403493 
---------------- Step  2020000 ----- CPU =    606.6077 (sec) ----------------
Time     = 10100000.000000 Temp     = 251.876080 Press    = -167.309208 
PotEng   = -10.339184 KinEng   = 0.749328 Lx       = 24.698491 
Ly       = 24.698491 Lz       = 24.698491 Density  = 1.016598 
Volume   = 15066.462118 
---------------- Step  2030000 ----- CPU =    612.5617 (sec) ----------------
Time     = 10150000.000000 Temp     = 249.907942 Press    = 1932.277893 
PotEng   = -10.358962 KinEng   = 0.743473 Lx       = 24.627420 
Ly       = 24.627420 Lz       = 24.627420 Density  = 1.025425 
Volume   = 14936.772589 
---------------- Step  2040000 ----- CPU =    618.4858 (sec) ----------------
Time     = 10200000.000000 Temp     = 241.786569 Press    = -213.056447 
PotEng   = -10.449757 KinEng   = 0.719312 Lx       = 24.810655 
Ly       = 24.810655 Lz       = 24.810655 Density  = 1.002873 
Volume   = 15272.660869 
---------------- Step  2050000 ----- CPU =    624.4105 (sec) ----------------
Time     = 10250000.000000 Temp     = 237.463267 Press    = 971.793006 
PotEng   = -10.245323 KinEng   = 0.706450 Lx       = 24.594835 
Ly       = 24.594835 Lz       = 24.594835 Density  = 1.029506 
Volume   = 14877.561893 
---------------- Step  2060000 ----- CPU =    630.3326 (sec) ----------------
Time     = 10300000.000000 Temp     = 263.658655 Press    = 1182.463223 
PotEng   = -10.316020 KinEng   = 0.784381 Lx       = 24.629235 
Ly       = 24.629235 Lz       = 24.629235 Density  = 1.025198 
Volume   = 14940.075536 
---------------- Step  2070000 ----- CPU =    636.2401 (sec) ----------------
Time     = 10350000.000000 Temp     = 233.331492 Press    = 1739.886926 
PotEng   = -10.364443 KinEng   = 0.694158 Lx       = 24.546429 
Ly       = 24.546429 Lz       = 24.546429 Density  = 1.035608 
Volume   = 14789.890984 
---------------- Step  2080000 ----- CPU =    642.1903 (sec) ----------------
Time     = 10400000.000000 Temp     = 252.198756 Press    = -726.134060 
PotEng   = -10.261513 KinEng   = 0.750288 Lx       = 24.733197 
Ly       = 24.733197 Lz       = 24.733197 Density  = 1.012325 
Volume   = 15130.063938 
---------------- Step  2090000 ----- CPU =    648.1282 (sec) ----------------
Time     = 10450000.000000 Temp     = 239.159038 Press    = 1637.620293 
PotEng   = -10.342940 KinEng   = 0.711495 Lx       = 24.572625 
Ly       = 24.572625 Lz       = 24.572625 Density  = 1.032300 
Volume   = 14837.292024 
---------------- Step  2100000 ----- CPU =    654.1302 (sec) ----------------
Time     = 10500000.000000 Temp     = 240.298640 Press    = 1053.356882 
PotEng   = -10.371225 KinEng   = 0.714886 Lx       = 24.632060 
Ly       = 24.632060 Lz       = 24.632060 Density  = 1.024845 
Volume   = 14945.215613 
---------------- Step  2110000 ----- CPU =    660.0828 (sec) ----------------
Time     = 10550000.000000 Temp     = 251.381493 Press    = 1572.959410 
PotEng   = -10.278049 KinEng   = 0.747857 Lx       = 24.592114 
Ly       = 24.592114 Lz       = 24.592114 Density  = 1.029848 
Volume   = 14872.622929 
---------------- Step  2120000 ----- CPU =    666.0133 (sec) ----------------
Time     = 10600000.000000 Temp     = 254.668543 Press    = 2140.240757 
PotEng   = -10.365763 KinEng   = 0.757636 Lx       = 24.551314 
Ly       = 24.551314 Lz       = 24.551314 Density  = 1.034990 
Volume   = 14798.721541 
---------------- Step  2130000 ----- CPU =    671.9028 (sec) ----------------
Time     = 10650000.000000 Temp     = 254.592398 Press    = 872.302815 
PotEng   = -10.327090 KinEng   = 0.757409 Lx       = 24.648045 
Ly       = 24.648045 Lz       = 24.648045 Density  = 1.022853 
Volume   = 14974.330501 
---------------- Step  2140000 ----- CPU =    677.8257 (sec) ----------------
Time     = 10700000.000000 Temp     = 238.600081 Press    = 1229.352010 
PotEng   = -10.262499 KinEng   = 0.709832 Lx       = 24.664916 
Ly       = 24.664916 Lz       = 24.664916 Density  = 1.020755 
Volume   = 15005.100246 
---------------- Step  2150000 ----- CPU =    683.7981 (sec) ----------------
Time     = 10750000.000000 Temp     = 259.189190 Press    = 19.546897 
PotEng   = -10.414810 KinEng   = 0.771085 Lx       = 24.780355 
Ly       = 24.780355 Lz       = 24.780355 Density  = 1.006556 
Volume   = 15216.773733 
---------------- Step  2160000 ----- CPU =    689.7239 (sec) ----------------
Time     = 10800000.000000 Temp     = 231.358633 Press    = 1198.127794 
PotEng   = -10.411385 KinEng   = 0.688289 Lx       = 24.611254 
Ly       = 24.611254 Lz       = 24.611254 Density  = 1.027447 
Volume   = 14907.376760 
---------------- Step  2170000 ----- CPU =    695.6524 (sec) ----------------
Time     = 10850000.000000 Temp     = 245.358577 Press    = 590.848302 
PotEng   = -10.326673 KinEng   = 0.729939 Lx       = 24.669018 
Ly       = 24.669018 Lz       = 24.669018 Density  = 1.020246 
Volume   = 15012.588279 
---------------- Step  2180000 ----- CPU =    701.5963 (sec) ----------------
Time     = 10900000.000000 Temp     = 252.343255 Press    = 1245.056740 
PotEng   = -10.335027 KinEng   = 0.750718 Lx       = 24.618173 
Ly       = 24.618173 Lz       = 24.618173 Density  = 1.026581 
Volume   = 14919.952450 
---------------- Step  2190000 ----- CPU =    707.5378 (sec) ----------------
Time     = 10950000.000000 Temp     = 236.768152 Press    = 62.934450 
PotEng   = -10.394341 KinEng   = 0.704382 Lx       = 24.718681 
Ly       = 24.718681 Lz       = 24.718681 Density  = 1.014109 
Volume   = 15103.439232 
---------------- Step  2200000 ----- CPU =    713.3970 (sec) ----------------
Time     = 11000000.000000 Temp     = 255.806202 Press    = 1631.728632 
PotEng   = -10.334413 KinEng   = 0.761020 Lx       = 24.664411 
Ly       = 24.664411 Lz       = 24.664411 Density  = 1.020818 
Volume   = 15004.179434 
---------------- Step  2210000 ----- CPU =    719.3864 (sec) ----------------
Time     = 11050000.000000 Temp     = 255.755679 Press    = 401.214614 
PotEng   = -10.375690 KinEng   = 0.760870 Lx       = 24.658845 
Ly       = 24.658845 Lz       = 24.658845 Density  = 1.021509 
Volume   = 14994.024016 
---------------- Step  2220000 ----- CPU =    725.3619 (sec) ----------------
Time     = 11100000.000000 Temp     = 255.222275 Press    = 2094.214812 
PotEng   = -10.350525 KinEng   = 0.759283 Lx       = 24.542512 
Ly       = 24.542512 Lz       = 24.542512 Density  = 1.036104 
Volume   = 14782.812275 
---------------- Step  2230000 ----- CPU =    731.3456 (sec) ----------------
Time     = 11150000.000000 Temp     = 273.235135 Press    = 2107.810000 
PotEng   = -10.374463 KinEng   = 0.812871 Lx       = 24.617040 
Ly       = 24.617040 Lz       = 24.617040 Density  = 1.026722 
Volume   = 14917.892794 
---------------- Step  2240000 ----- CPU =    737.2749 (sec) ----------------
Time     = 11200000.000000 Temp     = 254.225268 Press    = 976.446985 
PotEng   = -10.310257 KinEng   = 0.756317 Lx       = 24.620845 
Ly       = 24.620845 Lz       = 24.620845 Density  = 1.026246 
Volume   = 14924.812356 
---------------- Step  2250000 ----- CPU =    743.1941 (sec) ----------------
Time     = 11250000.000000 Temp     = 259.694325 Press    = 1257.479708 
PotEng   = -10.358538 KinEng   = 0.772588 Lx       = 24.641815 
Ly       = 24.641815 Lz       = 24.641815 Density  = 1.023629 
Volume   = 14962.979711 
---------------- Step  2260000 ----- CPU =    749.1451 (sec) ----------------
Time     = 11300000.000000 Temp     = 250.405238 Press    = 827.367676 
PotEng   = -10.352462 KinEng   = 0.744953 Lx       = 24.676582 
Ly       = 24.676582 Lz       = 24.676582 Density  = 1.019308 
Volume   = 15026.401723 
---------------- Step  2270000 ----- CPU =    755.0728 (sec) ----------------
Time     = 11350000.000000 Temp     = 246.762816 Press    = 874.978993 
PotEng   = -10.290387 KinEng   = 0.734116 Lx       = 24.681910 
Ly       = 24.681910 Lz       = 24.681910 Density  = 1.018648 
Volume   = 15036.137094 
---------------- Step  2280000 ----- CPU =    760.9888 (sec) ----------------
Time     = 11400000.000000 Temp     = 249.525444 Press    = 581.924946 
PotEng   = -10.294477 KinEng   = 0.742335 Lx       = 24.649671 
Ly       = 24.649671 Lz       = 24.649671 Density  = 1.022650 
Volume   = 14977.294164 
---------------- Step  2290000 ----- CPU =    766.9413 (sec) ----------------
Time     = 11450000.000000 Temp     = 253.195027 Press    = 881.880003 
PotEng   = -10.334125 KinEng   = 0.753252 Lx       = 24.727259 
Ly       = 24.727259 Lz       = 24.727259 Density  = 1.013054 
Volume   = 15119.169161 
---------------- Step  2300000 ----- CPU =    772.8744 (sec) ----------------
Time     = 11500000.000000 Temp     = 255.137724 Press    = 1080.872427 
PotEng   = -10.418619 KinEng   = 0.759032 Lx       = 24.647034 
Ly       = 24.647034 Lz       = 24.647034 Density  = 1.022979 
Volume   = 14972.488824 
---------------- Step  2310000 ----- CPU =    778.7967 (sec) ----------------
Time     = 11550000.000000 Temp     = 254.788270 Press    = 522.599343 
PotEng   = -10.332797 KinEng   = 0.757992 Lx       = 24.676992 
Ly       = 24.676992 Lz       = 24.676992 Density  = 1.019257 
Volume   = 15027.152108 
---------------- Step  2320000 ----- CPU =    784.7038 (sec) ----------------
Time     = 11600000.000000 Temp     = 241.938233 Press    = 621.567828 
PotEng   = -10.328402 KinEng   = 0.719763 Lx       = 24.719394 
Ly       = 24.719394 Lz       = 24.719394 Density  = 1.014021 
Volume   = 15104.746471 
---------------- Step  2330000 ----- CPU =    790.6708 (sec) ----------------
Time     = 11650000.000000 Temp     = 246.603888 Press    = 1447.698207 
PotEng   = -10.316337 KinEng   = 0.733644 Lx       = 24.655365 
Ly       = 24.655365 Lz       = 24.655365 Density  = 1.021942 
Volume   = 14987.676631 
---------------- Step  2340000 ----- CPU =    796.6951 (sec) ----------------
Time     = 11700000.000000 Temp     = 245.797068 Press    = 1399.809182 
PotEng   = -10.367400 KinEng   = 0.731243 Lx       = 24.644361 
Ly       = 24.644361 Lz       = 24.644361 Density  = 1.023311 
Volume   = 14967.617507 
---------------- Step  2350000 ----- CPU =    802.6188 (sec) ----------------
Time     = 11750000.000000 Temp     = 244.850509 Press    = 688.567017 
PotEng   = -10.296483 KinEng   = 0.728427 Lx       = 24.647829 
Ly       = 24.647829 Lz       = 24.647829 Density  = 1.022880 
Volume   = 14973.937756 
---------------- Step  2360000 ----- CPU =    808.4990 (sec) ----------------
Time     = 11800000.000000 Temp     = 258.238215 Press    = 984.819722 
PotEng   = -10.349169 KinEng   = 0.768256 Lx       = 24.632288 
Ly       = 24.632288 Lz       = 24.632288 Density  = 1.024817 
Volume   = 14945.631330 
---------------- Step  2370000 ----- CPU =    814.4547 (sec) ----------------
Time     = 11850000.000000 Temp     = 243.510697 Press    = 1847.612360 
PotEng   = -10.366457 KinEng   = 0.724441 Lx       = 24.629558 
Ly       = 24.629558 Lz       = 24.629558 Density  = 1.025158 
Volume   = 14940.662949 
---------------- Step  2380000 ----- CPU =    820.3634 (sec) ----------------
Time     = 11900000.000000 Temp     = 248.130194 Press    = 1928.691345 
PotEng   = -10.332016 KinEng   = 0.738184 Lx       = 24.641673 
Ly       = 24.641673 Lz       = 24.641673 Density  = 1.023646 
Volume   = 14962.721025 
---------------- Step  2390000 ----- CPU =    826.2705 (sec) ----------------
Time     = 11950000.000000 Temp     = 248.664865 Press    = 1118.397251 
PotEng   = -10.338073 KinEng   = 0.739775 Lx       = 24.616718 
Ly       = 24.616718 Lz       = 24.616718 Density  = 1.026763 
Volume   = 14917.308701 
---------------- Step  2400000 ----- CPU =    832.2561 (sec) ----------------
Time     = 12000000.000000 Temp     = 262.058202 Press    = 548.647011 
PotEng   = -10.348253 KinEng   = 0.779620 Lx       = 24.684094 
Ly       = 24.684094 Lz       = 24.684094 Density  = 1.018378 
Volume   = 15040.129459 
---------------- Step  2410000 ----- CPU =    838.1628 (sec) ----------------
Time     = 12050000.000000 Temp     = 237.214044 Press    = 979.838019 
PotEng   = -10.299644 KinEng   = 0.705709 Lx       = 24.680480 
Ly       = 24.680480 Lz       = 24.680480 Density  = 1.018825 
Volume   = 15033.525176 
---------------- Step  2420000 ----- CPU =    844.1435 (sec) ----------------
Time     = 12100000.000000 Temp     = 253.824537 Press    = 401.977146 
PotEng   = -10.287348 KinEng   = 0.755125 Lx       = 24.615546 
Ly       = 24.615546 Lz       = 24.615546 Density  = 1.026909 
Volume   = 14915.176644 
---------------- Step  2430000 ----- CPU =    850.1175 (sec) ----------------
Time     = 12150000.000000 Temp     = 259.783057 Press    = 933.485910 
PotEng   = -10.305926 KinEng   = 0.772852 Lx       = 24.610235 
Ly       = 24.610235 Lz       = 24.610235 Density  = 1.027574 
Volume   = 14905.525316 
---------------- Step  2440000 ----- CPU =    856.1166 (sec) ----------------
Time     = 12200000.000000 Temp     = 245.611864 Press    = 1151.276158 
PotEng   = -10.357977 KinEng   = 0.730692 Lx       = 24.599792 
Ly       = 24.599792 Lz       = 24.599792 Density  = 1.028883 
Volume   = 14886.559197 
---------------- Step  2450000 ----- CPU =    862.0618 (sec) ----------------
Time     = 12250000.000000 Temp     = 264.696121 Press    = 1688.508534 
PotEng   = -10.345665 KinEng   = 0.787468 Lx       = 24.561232 
Ly       = 24.561232 Lz       = 24.561232 Density  = 1.033737 
Volume   = 14816.664597 
---------------- Step  2460000 ----- CPU =    868.0394 (sec) ----------------
Time     = 12300000.000000 Temp     = 245.455935 Press    = 1149.944567 
PotEng   = -10.326131 KinEng   = 0.730228 Lx       = 24.610977 
Ly       = 24.610977 Lz       = 24.610977 Density  = 1.027481 
Volume   = 14906.873543 
---------------- Step  2470000 ----- CPU =    873.9381 (sec) ----------------
Time     = 12350000.000000 Temp     = 256.331553 Press    = 169.125395 
PotEng   = -10.358111 KinEng   = 0.762583 Lx       = 24.682795 
Ly       = 24.682795 Lz       = 24.682795 Density  = 1.018539 
Volume   = 15037.755121 
---------------- Step  2480000 ----- CPU =    879.8910 (sec) ----------------
Time     = 12400000.000000 Temp     = 252.216825 Press    = 703.878002 
PotEng   = -10.373017 KinEng   = 0.750342 Lx       = 24.652954 
Ly       = 24.652954 Lz       = 24.652954 Density  = 1.022242 
Volume   = 14983.280873 
---------------- Step  2490000 ----- CPU =    885.7929 (sec) ----------------
Time     = 12450000.000000 Temp     = 241.756358 Press    = 631.867737 
PotEng   = -10.354842 KinEng   = 0.719222 Lx       = 24.655975 
Ly       = 24.655975 Lz       = 24.655975 Density  = 1.021866 
Volume   = 14988.788730 
---------------- Step  2500000 ----- CPU =    891.7139 (sec) ----------------
Time     = 12500000.000000 Temp     = 238.577249 Press    = 1204.644447 
PotEng   = -10.333208 KinEng   = 0.709764 Lx       = 24.646035 
Ly       = 24.646035 Lz       = 24.646035 Density  = 1.023103 
Volume   = 14970.667576 
---------------- Step  2510000 ----- CPU =    897.6106 (sec) ----------------
Time     = 12550000.000000 Temp     = 245.424886 Press    = 305.791336 
PotEng   = -10.342060 KinEng   = 0.730136 Lx       = 24.635701 
Ly       = 24.635701 Lz       = 24.635701 Density  = 1.024391 
Volume   = 14951.845441 
---------------- Step  2520000 ----- CPU =    903.5653 (sec) ----------------
[...]
Ly       = 24.700883 Lz       = 24.700883 Density  = 1.016303 
Volume   = 15070.838992 
---------------- Step  4390000 ----- CPU =   2015.1879 (sec) ----------------
Time     = 21950000.000000 Temp     = 242.209718 Press    = 295.396924 
PotEng   = -10.348107 KinEng   = 0.720571 Lx       = 24.670547 
Ly       = 24.670547 Lz       = 24.670547 Density  = 1.020056 
Volume   = 15015.380397 
---------------- Step  4400000 ----- CPU =   2021.1064 (sec) ----------------
Time     = 22000000.000000 Temp     = 254.058404 Press    = 237.802390 
PotEng   = -10.364627 KinEng   = 0.755821 Lx       = 24.614508 
Ly       = 24.614508 Lz       = 24.614508 Density  = 1.027039 
Volume   = 14913.291024 
---------------- Step  4410000 ----- CPU =   2027.0130 (sec) ----------------
Time     = 22050000.000000 Temp     = 248.782687 Press    = 1688.703610 
PotEng   = -10.302245 KinEng   = 0.740126 Lx       = 24.646699 
Ly       = 24.646699 Lz       = 24.646699 Density  = 1.023020 
Volume   = 14971.878028 
---------------- Step  4420000 ----- CPU =   2032.9342 (sec) ----------------
Time     = 22100000.000000 Temp     = 247.952649 Press    = 1468.928733 
PotEng   = -10.372702 KinEng   = 0.737656 Lx       = 24.641532 
Ly       = 24.641532 Lz       = 24.641532 Density  = 1.023664 
Volume   = 14962.463560 
---------------- Step  4430000 ----- CPU =   2038.8975 (sec) ----------------
Time     = 22150000.000000 Temp     = 246.633421 Press    = 994.646944 
PotEng   = -10.251314 KinEng   = 0.733732 Lx       = 24.600525 
Ly       = 24.600525 Lz       = 24.600525 Density  = 1.028792 
Volume   = 14887.889397 
---------------- Step  4440000 ----- CPU =   2044.8419 (sec) ----------------
Time     = 22200000.000000 Temp     = 249.580467 Press    = 1484.832700 
PotEng   = -10.377695 KinEng   = 0.742499 Lx       = 24.618951 
Ly       = 24.618951 Lz       = 24.618951 Density  = 1.026483 
Volume   = 14921.368232 
---------------- Step  4450000 ----- CPU =   2050.7819 (sec) ----------------
Time     = 22250000.000000 Temp     = 253.511143 Press    = 1120.031776 
PotEng   = -10.351409 KinEng   = 0.754193 Lx       = 24.556421 
Ly       = 24.556421 Lz       = 24.556421 Density  = 1.034345 
Volume   = 14807.959277 
---------------- Step  4460000 ----- CPU =   2056.6887 (sec) ----------------
Time     = 22300000.000000 Temp     = 253.057826 Press    = 1029.400416 
PotEng   = -10.333652 KinEng   = 0.752844 Lx       = 24.602374 
Ly       = 24.602374 Lz       = 24.602374 Density  = 1.028560 
Volume   = 14891.246596 
---------------- Step  4470000 ----- CPU =   2062.6483 (sec) ----------------
Time     = 22350000.000000 Temp     = 235.857949 Press    = 81.995475 
PotEng   = -10.373469 KinEng   = 0.701675 Lx       = 24.582535 
Ly       = 24.582535 Lz       = 24.582535 Density  = 1.031052 
Volume   = 14855.250544 
---------------- Step  4480000 ----- CPU =   2068.6187 (sec) ----------------
Time     = 22400000.000000 Temp     = 255.584459 Press    = 180.860823 
PotEng   = -10.320103 KinEng   = 0.760361 Lx       = 24.697662 
Ly       = 24.697662 Lz       = 24.697662 Density  = 1.016700 
Volume   = 15064.944168 
---------------- Step  4490000 ----- CPU =   2074.5323 (sec) ----------------
Time     = 22450000.000000 Temp     = 246.596672 Press    = 1107.467014 
PotEng   = -10.313861 KinEng   = 0.733622 Lx       = 24.669981 
Ly       = 24.669981 Lz       = 24.669981 Density  = 1.020127 
Volume   = 15014.346839 
---------------- Step  4500000 ----- CPU =   2080.4769 (sec) ----------------
Time     = 22500000.000000 Temp     = 256.924857 Press    = 182.117179 
PotEng   = -10.333049 KinEng   = 0.764348 Lx       = 24.651852 
Ly       = 24.651852 Lz       = 24.651852 Density  = 1.022379 
Volume   = 14981.270411 
---------------- Step  4510000 ----- CPU =   2086.4428 (sec) ----------------
Time     = 22550000.000000 Temp     = 243.128282 Press    = 1645.755672 
PotEng   = -10.335144 KinEng   = 0.723304 Lx       = 24.666517 
Ly       = 24.666517 Lz       = 24.666517 Density  = 1.020556 
Volume   = 15008.022420 
---------------- Step  4520000 ----- CPU =   2092.4165 (sec) ----------------
Time     = 22600000.000000 Temp     = 244.041999 Press    = 1285.709524 
PotEng   = -10.358631 KinEng   = 0.726022 Lx       = 24.585551 
Ly       = 24.585551 Lz       = 24.585551 Density  = 1.030673 
Volume   = 14860.719030 
---------------- Step  4530000 ----- CPU =   2098.3546 (sec) ----------------
Time     = 22650000.000000 Temp     = 238.064028 Press    = 1289.010031 
PotEng   = -10.362553 KinEng   = 0.708238 Lx       = 24.613580 
Ly       = 24.613580 Lz       = 24.613580 Density  = 1.027155 
Volume   = 14911.604327 
---------------- Step  4540000 ----- CPU =   2104.2914 (sec) ----------------
Time     = 22700000.000000 Temp     = 243.855716 Press    = 1189.938369 
PotEng   = -10.339810 KinEng   = 0.725468 Lx       = 24.695105 
Ly       = 24.695105 Lz       = 24.695105 Density  = 1.017016 
Volume   = 15060.265070 
---------------- Step  4550000 ----- CPU =   2110.2271 (sec) ----------------
Time     = 22750000.000000 Temp     = 253.226955 Press    = 1668.006635 
PotEng   = -10.262998 KinEng   = 0.753347 Lx       = 24.617743 
Ly       = 24.617743 Lz       = 24.617743 Density  = 1.026634 
Volume   = 14919.170922 
---------------- Step  4560000 ----- CPU =   2116.1535 (sec) ----------------
Time     = 22800000.000000 Temp     = 243.701112 Press    = 214.466748 
PotEng   = -10.300257 KinEng   = 0.725008 Lx       = 24.680550 
Ly       = 24.680550 Lz       = 24.680550 Density  = 1.018817 
Volume   = 15033.651598 
---------------- Step  4570000 ----- CPU =   2122.0629 (sec) ----------------
Time     = 22850000.000000 Temp     = 238.664234 Press    = 1332.983611 
PotEng   = -10.366250 KinEng   = 0.710023 Lx       = 24.589829 
Ly       = 24.589829 Lz       = 24.589829 Density  = 1.030135 
Volume   = 14868.477773 
---------------- Step  4580000 ----- CPU =   2128.0000 (sec) ----------------
Time     = 22900000.000000 Temp     = 252.442059 Press    = 1689.250876 
PotEng   = -10.329109 KinEng   = 0.751012 Lx       = 24.632003 
Ly       = 24.632003 Lz       = 24.632003 Density  = 1.024852 
Volume   = 14945.112378 
---------------- Step  4590000 ----- CPU =   2133.9746 (sec) ----------------
Time     = 22950000.000000 Temp     = 253.363116 Press    = 1399.870707 
PotEng   = -10.363150 KinEng   = 0.753752 Lx       = 24.630584 
Ly       = 24.630584 Lz       = 24.630584 Density  = 1.025030 
Volume   = 14942.529807 
---------------- Step  4600000 ----- CPU =   2139.9774 (sec) ----------------
Time     = 23000000.000000 Temp     = 255.842772 Press    = 1147.372509 
PotEng   = -10.304120 KinEng   = 0.761129 Lx       = 24.686227 
Ly       = 24.686227 Lz       = 24.686227 Density  = 1.018114 
Volume   = 15044.029631 
---------------- Step  4610000 ----- CPU =   2145.8871 (sec) ----------------
Time     = 23050000.000000 Temp     = 253.973774 Press    = 1100.738997 
PotEng   = -10.330890 KinEng   = 0.755569 Lx       = 24.592483 
Ly       = 24.592483 Lz       = 24.592483 Density  = 1.029801 
Volume   = 14873.293498 
---------------- Step  4620000 ----- CPU =   2151.8703 (sec) ----------------
Time     = 23100000.000000 Temp     = 257.702601 Press    = 1255.576897 
PotEng   = -10.376346 KinEng   = 0.766662 Lx       = 24.577847 
Ly       = 24.577847 Lz       = 24.577847 Density  = 1.031642 
Volume   = 14846.754557 
---------------- Step  4630000 ----- CPU =   2157.8467 (sec) ----------------
Time     = 23150000.000000 Temp     = 253.235678 Press    = 52.989200 
PotEng   = -10.336717 KinEng   = 0.753373 Lx       = 24.692210 
Ly       = 24.692210 Lz       = 24.692210 Density  = 1.017374 
Volume   = 15054.969341 
---------------- Step  4640000 ----- CPU =   2163.7548 (sec) ----------------
Time     = 23200000.000000 Temp     = 258.071220 Press    = 1336.674768 
PotEng   = -10.239636 KinEng   = 0.767759 Lx       = 24.604813 
Ly       = 24.604813 Lz       = 24.604813 Density  = 1.028254 
Volume   = 14895.676432 
---------------- Step  4650000 ----- CPU =   2169.7116 (sec) ----------------
Time     = 23250000.000000 Temp     = 238.522803 Press    = 327.590401 
PotEng   = -10.340064 KinEng   = 0.709603 Lx       = 24.622416 
Ly       = 24.622416 Lz       = 24.622416 Density  = 1.026050 
Volume   = 14927.669352 
---------------- Step  4660000 ----- CPU =   2175.6174 (sec) ----------------
Time     = 23300000.000000 Temp     = 257.031268 Press    = -58.082519 
PotEng   = -10.346441 KinEng   = 0.764665 Lx       = 24.719131 
Ly       = 24.719131 Lz       = 24.719131 Density  = 1.014054 
Volume   = 15104.265658 
---------------- Step  4670000 ----- CPU =   2181.5466 (sec) ----------------
Time     = 23350000.000000 Temp     = 249.177273 Press    = 1837.078437 
PotEng   = -10.334173 KinEng   = 0.741299 Lx       = 24.565503 
Ly       = 24.565503 Lz       = 24.565503 Density  = 1.033198 
Volume   = 14824.396030 
---------------- Step  4680000 ----- CPU =   2187.4819 (sec) ----------------
Time     = 23400000.000000 Temp     = 242.670729 Press    = 1369.105014 
PotEng   = -10.318593 KinEng   = 0.721943 Lx       = 24.654731 
Ly       = 24.654731 Lz       = 24.654731 Density  = 1.022021 
Volume   = 14986.521018 
---------------- Step  4690000 ----- CPU =   2193.4052 (sec) ----------------
Time     = 23450000.000000 Temp     = 247.563557 Press    = 581.041300 
PotEng   = -10.303342 KinEng   = 0.736499 Lx       = 24.631031 
Ly       = 24.631031 Lz       = 24.631031 Density  = 1.024974 
Volume   = 14943.343647 
---------------- Step  4700000 ----- CPU =   2199.4036 (sec) ----------------
Time     = 23500000.000000 Temp     = 240.670500 Press    = 986.502870 
PotEng   = -10.290869 KinEng   = 0.715992 Lx       = 24.666562 
Ly       = 24.666562 Lz       = 24.666562 Density  = 1.020551 
Volume   = 15008.105361 
---------------- Step  4710000 ----- CPU =   2205.3621 (sec) ----------------
Time     = 23550000.000000 Temp     = 242.673029 Press    = 1474.139927 
PotEng   = -10.379577 KinEng   = 0.721949 Lx       = 24.608268 
Ly       = 24.608268 Lz       = 24.608268 Density  = 1.027821 
Volume   = 14901.951298 
---------------- Step  4720000 ----- CPU =   2211.2633 (sec) ----------------
Time     = 23600000.000000 Temp     = 239.721202 Press    = -209.933808 
PotEng   = -10.286880 KinEng   = 0.713168 Lx       = 24.716657 
Ly       = 24.716657 Lz       = 24.716657 Density  = 1.014358 
Volume   = 15099.730378 
---------------- Step  4730000 ----- CPU =   2217.2287 (sec) ----------------
Time     = 23650000.000000 Temp     = 240.485661 Press    = 966.494660 
PotEng   = -10.364821 KinEng   = 0.715442 Lx       = 24.590140 
Ly       = 24.590140 Lz       = 24.590140 Density  = 1.030096 
Volume   = 14869.043168 
---------------- Step  4740000 ----- CPU =   2223.2372 (sec) ----------------
Time     = 23700000.000000 Temp     = 268.369393 Press    = 1895.401573 
PotEng   = -10.317556 KinEng   = 0.798396 Lx       = 24.584486 
Ly       = 24.584486 Lz       = 24.584486 Density  = 1.030806 
Volume   = 14858.789070 
---------------- Step  4750000 ----- CPU =   2229.1958 (sec) ----------------
Time     = 23750000.000000 Temp     = 259.746126 Press    = 1756.618801 
PotEng   = -10.393679 KinEng   = 0.772742 Lx       = 24.595589 
Ly       = 24.595589 Lz       = 24.595589 Density  = 1.029411 
Volume   = 14878.929324 
---------------- Step  4760000 ----- CPU =   2235.1306 (sec) ----------------
Time     = 23800000.000000 Temp     = 245.607071 Press    = 575.928396 
PotEng   = -10.394904 KinEng   = 0.730678 Lx       = 24.636083 
Ly       = 24.636083 Lz       = 24.636083 Density  = 1.024343 
Volume   = 14952.540927 
---------------- Step  4770000 ----- CPU =   2241.0769 (sec) ----------------
Time     = 23850000.000000 Temp     = 260.792207 Press    = -8.498333 
PotEng   = -10.312568 KinEng   = 0.775854 Lx       = 24.665815 
Ly       = 24.665815 Lz       = 24.665815 Density  = 1.020644 
Volume   = 15006.742296 
---------------- Step  4780000 ----- CPU =   2247.0183 (sec) ----------------
Time     = 23900000.000000 Temp     = 249.495407 Press    = 809.155169 
PotEng   = -10.374094 KinEng   = 0.742246 Lx       = 24.602408 
Ly       = 24.602408 Lz       = 24.602408 Density  = 1.028555 
Volume   = 14891.308452 
---------------- Step  4790000 ----- CPU =   2252.9788 (sec) ----------------
Time     = 23950000.000000 Temp     = 238.965930 Press    = 659.312719 
PotEng   = -10.327397 KinEng   = 0.710921 Lx       = 24.570028 
Ly       = 24.570028 Lz       = 24.570028 Density  = 1.032627 
Volume   = 14832.588064 
---------------- Step  4800000 ----- CPU =   2258.9429 (sec) ----------------
Time     = 24000000.000000 Temp     = 227.084476 Press    = 1079.842865 
PotEng   = -10.264207 KinEng   = 0.675574 Lx       = 24.674327 
Ly       = 24.674327 Lz       = 24.674327 Density  = 1.019588 
Volume   = 15022.283996 
---------------- Step  4810000 ----- CPU =   2264.9052 (sec) ----------------
Time     = 24050000.000000 Temp     = 248.081713 Press    = 1728.877344 
PotEng   = -10.366932 KinEng   = 0.738040 Lx       = 24.633627 
Ly       = 24.633627 Lz       = 24.633627 Density  = 1.024650 
Volume   = 14948.068070 
---------------- Step  4820000 ----- CPU =   2270.9058 (sec) ----------------
Time     = 24100000.000000 Temp     = 253.859334 Press    = 717.995785 
PotEng   = -10.323217 KinEng   = 0.755229 Lx       = 24.687572 
Ly       = 24.687572 Lz       = 24.687572 Density  = 1.017947 
Volume   = 15046.488579 
---------------- Step  4830000 ----- CPU =   2276.7774 (sec) ----------------
Time     = 24150000.000000 Temp     = 259.333245 Press    = 782.852067 
PotEng   = -10.349583 KinEng   = 0.771513 Lx       = 24.803137 
Ly       = 24.803137 Lz       = 24.803137 Density  = 1.003785 
Volume   = 15258.780337 
---------------- Step  4840000 ----- CPU =   2282.7359 (sec) ----------------
Time     = 24200000.000000 Temp     = 250.809337 Press    = 1194.343221 
PotEng   = -10.342005 KinEng   = 0.746155 Lx       = 24.599680 
Ly       = 24.599680 Lz       = 24.599680 Density  = 1.028898 
Volume   = 14886.355245 
---------------- Step  4850000 ----- CPU =   2288.6871 (sec) ----------------
Time     = 24250000.000000 Temp     = 262.890413 Press    = 1665.590590 
PotEng   = -10.320797 KinEng   = 0.782096 Lx       = 24.495035 
Ly       = 24.495035 Lz       = 24.495035 Density  = 1.042141 
Volume   = 14697.185928 
---------------- Step  4860000 ----- CPU =   2294.6544 (sec) ----------------
Time     = 24300000.000000 Temp     = 256.851343 Press    = 1473.911940 
PotEng   = -10.343524 KinEng   = 0.764130 Lx       = 24.675545 
Ly       = 24.675545 Lz       = 24.675545 Density  = 1.019437 
Volume   = 15024.508587 
---------------- Step  4870000 ----- CPU =   2300.5703 (sec) ----------------
Time     = 24350000.000000 Temp     = 251.032093 Press    = -259.181355 
PotEng   = -10.314674 KinEng   = 0.746818 Lx       = 24.694584 
Ly       = 24.694584 Lz       = 24.694584 Density  = 1.017081 
Volume   = 15059.313339 
---------------- Step  4880000 ----- CPU =   2306.4704 (sec) ----------------
Time     = 24400000.000000 Temp     = 247.860474 Press    = 988.214555 
PotEng   = -10.311185 KinEng   = 0.737382 Lx       = 24.595329 
Ly       = 24.595329 Lz       = 24.595329 Density  = 1.029444 
Volume   = 14878.458205 
---------------- Step  4890000 ----- CPU =   2312.4328 (sec) ----------------
Time     = 24450000.000000 Temp     = 251.281262 Press    = 1431.039221 
PotEng   = -10.356486 KinEng   = 0.747559 Lx       = 24.614922 
Ly       = 24.614922 Lz       = 24.614922 Density  = 1.026987 
Volume   = 14914.043898 
---------------- Step  4900000 ----- CPU =   2318.3626 (sec) ----------------
Time     = 24500000.000000 Temp     = 250.263441 Press    = -86.364830 
PotEng   = -10.374747 KinEng   = 0.744531 Lx       = 24.753219 
Ly       = 24.753219 Lz       = 24.753219 Density  = 1.009870 
Volume   = 15166.838935 
---------------- Step  4910000 ----- CPU =   2324.2840 (sec) ----------------
Time     = 24550000.000000 Temp     = 242.878182 Press    = 779.915527 
PotEng   = -10.284695 KinEng   = 0.722560 Lx       = 24.617414 
Ly       = 24.617414 Lz       = 24.617414 Density  = 1.026676 
Volume   = 14918.572930 
---------------- Step  4920000 ----- CPU =   2330.2443 (sec) ----------------
Time     = 24600000.000000 Temp     = 255.079389 Press    = 534.486935 
PotEng   = -10.302255 KinEng   = 0.758858 Lx       = 24.632152 
Ly       = 24.632152 Lz       = 24.632152 Density  = 1.024834 
Volume   = 14945.383929 
---------------- Step  4930000 ----- CPU =   2336.2353 (sec) ----------------
Time     = 24650000.000000 Temp     = 236.428172 Press    = 1624.603045 
PotEng   = -10.397852 KinEng   = 0.703371 Lx       = 24.637979 
Ly       = 24.637979 Lz       = 24.637979 Density  = 1.024107 
Volume   = 14955.993465 
---------------- Step  4940000 ----- CPU =   2342.1552 (sec) ----------------
Time     = 24700000.000000 Temp     = 240.659835 Press    = 993.705922 
PotEng   = -10.361485 KinEng   = 0.715960 Lx       = 24.666524 
Ly       = 24.666524 Lz       = 24.666524 Density  = 1.020556 
Volume   = 15008.035604 
---------------- Step  4950000 ----- CPU =   2348.1165 (sec) ----------------
Time     = 24750000.000000 Temp     = 252.264667 Press    = 786.082692 
PotEng   = -10.403783 KinEng   = 0.750484 Lx       = 24.696064 
Ly       = 24.696064 Lz       = 24.696064 Density  = 1.016898 
Volume   = 15062.019299 
---------------- Step  4960000 ----- CPU =   2354.0580 (sec) ----------------
Time     = 24800000.000000 Temp     = 252.480856 Press    = 489.246116 
PotEng   = -10.320603 KinEng   = 0.751128 Lx       = 24.661926 
Ly       = 24.661926 Lz       = 24.661926 Density  = 1.021127 
Volume   = 14999.644089 
---------------- Step  4970000 ----- CPU =   2360.0123 (sec) ----------------
Time     = 24850000.000000 Temp     = 248.754623 Press    = -34.615631 
PotEng   = -10.363061 KinEng   = 0.740042 Lx       = 24.679416 
Ly       = 24.679416 Lz       = 24.679416 Density  = 1.018957 
Volume   = 15031.580421 
---------------- Step  4980000 ----- CPU =   2365.9725 (sec) ----------------
Time     = 24900000.000000 Temp     = 250.910540 Press    = 2257.114991 
PotEng   = -10.318434 KinEng   = 0.746456 Lx       = 24.555672 
Ly       = 24.555672 Lz       = 24.555672 Density  = 1.034439 
Volume   = 14806.604745 
---------------- Step  4990000 ----- CPU =   2371.8931 (sec) ----------------
Time     = 24950000.000000 Temp     = 247.091234 Press    = 659.392314 
PotEng   = -10.341711 KinEng   = 0.735093 Lx       = 24.656534 
Ly       = 24.656534 Lz       = 24.656534 Density  = 1.021797 
Volume   = 14989.808051 
---------------- Step  5000000 ----- CPU =   2377.8447 (sec) ----------------
Time     = 25000000.000000 Temp     = 240.698647 Press    = 264.193740 
PotEng   = -10.275946 KinEng   = 0.716076 Lx       = 24.714241 
Ly       = 24.714241 Lz       = 24.714241 Density  = 1.014656 
Volume   = 15095.302684 
Loop time of 2377.84 on 6 procs for 4000000 steps with 512 atoms

Performance: 726.708 ns/day, 0.033 hours/ns, 1682.196 timesteps/s
97.2% CPU use with 6 MPI tasks x no OpenMP threads

MPI task timing breakdown:
Section |  min time  |  avg time  |  max time  |%varavg| %total
---------------------------------------------------------------
Pair    | 2017.1     | 2021.6     | 2038.5     |  16.9 | 85.02
Neigh   | 52.48      | 52.575     | 52.651     |   0.9 |  2.21
Comm    | 237.3      | 254.46     | 260.66     |  49.3 | 10.70
Output  | 0.0097435  | 0.015777   | 0.044625   |  10.3 |  0.00
Modify  | 39.215     | 40.46      | 41.552     |  11.8 |  1.70
Other   |            | 8.724      |            |       |  0.37

Nlocal:    85.3333 ave 91 max 81 min
Histogram: 1 0 1 0 2 0 1 0 0 1
Nghost:    577.667 ave 586 max 573 min
Histogram: 1 2 0 1 1 0 0 0 0 1
Neighs:    0 ave 0 max 0 min
Histogram: 6 0 0 0 0 0 0 0 0 0
FullNghs:  2899 ave 3124 max 2727 min
Histogram: 1 0 1 1 2 0 0 0 0 1

Total # of neighbors = 17394
Ave neighs/atom = 33.9727
Neighbor list builds = 233248
Dangerous builds = 0

write_data data.final
Total wall time: 0:49:32
