LAMMPS data file via write_data, version 4 Jan 2019, timestep = 2000000

512 atoms
1 atom types

1.9158856114067646e-02 2.4815841143891788e+01 xlo xhi
1.9158856114067646e-02 2.4815841143891788e+01 ylo yhi
1.9158856114067646e-02 2.4815841143891788e+01 zlo zhi

Masses

1 18.0153

Atoms # atomic

292 1 1.0806140687232052e+01 2.7080284550188769e+00 5.7995572295883742e+00 -15 24 63
214 1 1.3820888979564792e+00 3.1772561704174507e-01 1.8439109340853295e+00 19 99 0
490 1 4.2637412853454402e+00 1.0905169802320296e+01 2.0454742469701004e+00 14 -94 0
171 1 4.1612528646308702e+00 2.0094213247432293e+00 1.8693920310549894e+00 -35 45 13
352 1 2.0274245547947931e+00 1.0791725850962791e+01 3.8935089431355228e+00 44 -39 -66
335 1 9.7785243475415946e+00 1.0930109522564303e+01 4.6026684452321143e-01 17 -20 95
150 1 1.0543071250819393e+01 8.9221776950104337e-01 2.2345435553959456e+00 79 -32 72
487 1 7.1382555787190389e+00 4.8618109641713114e-01 1.0488534258753589e+01 28 44 -10
25 1 3.4239623346321317e+00 8.9272592620669613e+00 6.6840182016279410e+00 59 -80 -53
81 1 1.0788570193324014e+00 8.3711616827738276e+00 2.8884127332694760e+00 47 98 -16
122 1 5.8804889654399295e+00 1.1313480645779229e+01 1.0324687094329935e+01 8 8 12
17 1 1.1800461441915646e+00 5.5399918299472306e+00 1.1435693708423941e+01 48 18 23
96 1 9.6276251764057470e+00 3.6769785748089965e+00 2.2870566242523815e+00 234 45 68
54 1 8.8265289010961254e+00 1.0989332739640510e+01 6.6048250810211764e+00 -5 17 46
73 1 5.3166756131199522e-01 1.0335467148178974e+01 9.7204033596270545e+00 -57 9 20
235 1 6.3943819788814240e+00 2.5676980572850909e+00 8.4942849707527515e+00 24 -58 150
316 1 3.7807812555490869e+00 7.8287675901873275e+00 1.9555371817745797e+00 39 117 70
417 1 9.5781522558104939e+00 9.6679298590088738e+00 2.8653184502129907e+00 9 5 -22
153 1 1.2068252139827093e+01 6.3649092478664215e-01 8.3803810225322213e+00 5 -19 79
392 1 3.6191808960131328e-01 5.5694678506891435e+00 8.7390131025864939e+00 20 13 -61
38 1 6.8140860691551604e+00 1.4439810623510814e+00 1.9928676121046995e+00 -20 54 -18
484 1 5.8007555503576680e-01 8.1258659409977287e+00 1.1535125742417680e+01 -46 -17 90
324 1 1.0081053202951635e+01 7.9203101672023939e+00 7.9382709110026735e+00 4 -57 80
176 1 8.6927427047264949e+00 7.3044058794422639e+00 8.2321714830306703e-01 -94 -93 -25
183 1 7.2607482546571562e+00 9.1207884552285847e+00 8.2323567629289673e+00 34 90 16
255 1 3.4507591921361178e+00 4.4898655379819594e+00 6.2912491085413196e+00 -127 6 81
27 1 1.0635522431152513e+01 5.4315640853157667e+00 9.7796829175782438e+00 13 -29 54
40 1 1.9343364537057539e-02 1.3556648705574441e+00 1.1294013180002404e+01 2 40 60
388 1 1.0843982051436685e+01 6.8150713959424731e+00 5.5900733534767308e+00 64 -6 33
300 1 2.4047556787795079e+00 1.1322258317457070e+01 6.5592587044195083e+00 -80 67 28
226 1 5.8380692761705397e+00 6.9730457937231174e+00 3.9610905424439311e+00 0 7 1
89 1 4.8758603770856572e+00 1.9058931790813514e+00 1.0546400221549865e+01 -10 14 -181
116 1 2.3572093569376635e+00 6.8771659766957427e-01 9.8359817041175539e+00 -51 2 0
494 1 6.4886784565456930e+00 2.9048545866503055e+00 4.2433921302302418e+00 -8 59 -82
138 1 1.2098808631466115e+01 3.3570139186806571e+00 8.3437936839939457e+00 184 40 20
241 1 8.5488255706209308e+00 6.9117558775894983e+00 3.4931157247471596e+00 -1 -113 -26
193 1 3.8044695841922742e+00 6.6499779579278444e+00 1.0800629790350339e+01 -76 24 -12
355 1 1.7785156408533978e+00 2.5837721481770077e+00 5.8030916328802205e+00 -32 -3 67
403 1 6.2210087479863274e+00 8.4194082184677765e-01 6.1449912810233744e+00 -71 49 13
16 1 8.4754204260815786e+00 4.1768294316965733e+00 7.9797676997587299e+00 143 93 3
224 1 1.6713355476382254e+00 6.5501709767606444e+00 6.6053837461406468e+00 59 -92 5
82 1 7.3416297611795898e+00 6.2252008725401238e+00 9.4291085515559061e+00 -4 -3 4
365 1 7.1122678318155028e+00 1.0781308546332658e+01 4.1098342499109570e+00 -13 75 -36
399 1 8.9151427118915354e+00 4.4828192334551833e+00 5.2345662898744765e+00 22 64 -17
370 1 2.4485094496661503e-01 2.8516796988968429e+00 8.6898595277622608e+00 -28 114 32
21 1 3.2765055891703563e+00 1.2118037143725736e+01 9.3621432622348237e+00 13 -2 -114
440 1 4.2075282433889170e+00 9.2364331545439082e+00 1.2003044350170644e+01 -30 -36 116
293 1 4.9122815001238065e+00 5.0657975169788685e+00 8.4637441929863186e+00 9 130 55
164 1 8.6454164992612466e+00 1.1378432794968697e+01 9.4905340258888433e+00 54 23 138
188 1 1.0385150715383956e+01 9.3111690502755362e+00 1.0404027169652766e+01 5 -3 65
240 1 1.2074855250904792e+01 9.2202064343638011e+00 4.3039828998171483e+00 -222 136 62
421 1 2.1729552042474225e+00 5.3208713541664920e+00 1.5249129844407054e+00 18 1 76
427 1 1.0235165075498404e+01 8.7317559679099793e-02 6.5091577840259394e+00 126 -14 26
449 1 6.1329113843986907e+00 8.8668981139165606e+00 5.5967206152764568e+00 -58 70 28
190 1 7.6331701398529628e+00 5.6084143042059695e+00 1.2324811624380256e+01 98 86 24
308 1 1.1551411012829586e+01 1.0262182044809654e+01 6.6575698452985232e+00 48 105 61
435 1 1.4420881474087485e-01 1.1074857312534823e+01 1.4878606611834737e+00 -48 -12 -14
2 1 1.3853650818137080e+00 2.7774439861472087e+00 2.9519345450600976e+00 -49 6 -10
329 1 3.4714936880189087e+00 4.5494905509990274e-01 5.5739322644867570e+00 10 -125 -61
288 1 4.2985619863837519e+00 4.6312602966579384e+00 3.6016497941734329e+00 -68 -27 -80
191 1 4.5511851260912861e+00 8.9079315677066138e+00 9.1026623746755426e+00 42 -17 -20
499 1 2.2163282930495853e-02 1.0105843572204245e+01 6.9676040032682343e+00 40 -29 -70
245 1 7.7994174525944580e+00 3.3768114883052647e+00 1.8484900677342640e+01 -21 8 90
497 1 4.1107948238586394e+00 1.0277780604374454e+01 1.8963284073754796e+01 -2 27 22
95 1 5.1634848656866641e+00 1.6957046670494567e+00 1.5947304233595672e+01 57 131 -4
391 1 7.1094780366185715e+00 2.5834704065371819e+00 2.4116238338519015e+01 -83 -30 -8
450 1 3.5521512992089512e+00 2.1171820873982741e+00 2.0157534496440487e+01 125 -84 25
398 1 4.7963062039340265e+00 4.9305664923814456e+00 1.3047310102365477e+01 -46 -28 12
57 1 4.7353087273211916e+00 9.6578603563187944e+00 2.3898269302470347e+01 -25 1 29
149 1 2.7202798633698535e+00 5.4263005073481843e+00 1.4760087150957022e+01 -51 56 -5
115 1 1.1744643704369652e+01 3.6842166707510717e+00 1.9860637513639990e+01 76 -147 27
253 1 1.1616265247250647e+01 3.1084190156638374e+00 1.4219332022885924e+01 -2 12 -4
283 1 2.3558631966350974e+00 6.7013233155333340e+00 1.7360572314653108e+01 84 -37 65
68 1 1.2372465844442225e+01 9.2706763688617162e+00 1.8924592707575091e+01 2 -21 11
31 1 1.5629695572854712e+00 3.1029278563979217e+00 1.6548942414209002e+01 -52 -18 122
263 1 1.0138221505732005e+01 1.1424227953165188e+01 1.4806930267721777e+01 30 136 2
338 1 1.2609744187452510e-01 6.7291315958279165e+00 1.9518660238214537e+01 -2 1 37
203 1 8.2779569935583481e+00 3.8334941041315052e+00 1.4226627586087575e+01 107 -113 76
364 1 8.6547518408736739e+00 5.5224543071731027e+00 2.1970307370217135e+01 106 16 -13
130 1 1.7370795424070820e+00 3.0265840724831770e+00 1.2965665480664741e+01 -16 -36 10
342 1 5.0835047909774449e+00 8.7397960707702644e+00 2.1110629597259518e+01 31 -8 14
111 1 9.7477373338860573e+00 4.7379600185003383e+00 1.6872766219759558e+01 5 44 88
45 1 1.1831482957543678e+01 2.7757032264094641e+00 1.7096205237852196e+01 0 85 -80
169 1 1.0466664628566093e+01 8.6890013024186192e+00 1.5547954788923871e+01 -9 34 4
262 1 6.1115288909134966e+00 4.6675754689191660e+00 1.5640834578188620e+01 6 50 -44
298 1 4.3390107093756827e+00 7.5873381180988790e+00 1.4260430905720005e+01 8 44 1
410 1 4.5786174052989832e+00 8.2259725830761461e+00 1.7195344998651404e+01 21 132 8
415 1 1.2088644116568506e+01 1.0860922024549676e+01 1.6766892997210405e+01 -58 -44 24
94 1 3.4667351278220266e+00 1.1519200833707446e+01 1.4446362717364710e+01 -60 36 46
304 1 2.2511096543304001e+00 1.4287656188455372e-01 2.1702171776877734e+01 -20 -49 114
456 1 1.0786133208175480e+01 9.4959825233922626e+00 2.1571229960764573e+01 -30 -35 12
148 1 3.9831836698239540e+00 1.2202578744710937e+01 2.4110817279039882e+01 -47 46 70
401 1 2.3155584801012203e+00 1.1771686786698760e+01 2.2103470248816681e+01 34 8 17
431 1 8.8954381717693458e+00 1.6458066986526001e+00 1.2693320643481254e+01 -65 -36 -31
155 1 5.8941525281592257e+00 5.7634041778512666e+00 1.8259546529822455e+01 -50 33 30
461 1 1.0968145903329379e+01 6.7622893782784690e+00 2.0694517042306302e+01 10 30 -11
333 1 2.0838323612224690e+00 4.1006995499393630e+00 2.3185742558862394e+01 18 36 30
32 1 2.7958925149013067e+00 7.3934625433456003e-01 1.6918581981096604e+01 -54 110 -45
19 1 4.4585512678288204e+00 5.7212820367499519e+00 2.1130475752368856e+01 11 50 77
363 1 1.0917239010984254e+00 9.7353717867188152e+00 1.9985622872626170e+01 -16 -39 18
168 1 8.9602298740333275e+00 1.1256215355831098e+00 2.2714471033494277e+01 95 -50 -58
344 1 3.3523341620676912e+00 1.8399571753414943e+00 2.4035488964009055e+01 34 -50 7
231 1 2.7624413989562741e-01 1.5478054828175942e+00 2.4136856304853229e+01 -41 10 34
482 1 8.7540627845169083e-01 9.1439422816105349e+00 1.6994284703446453e+01 8 71 35
43 1 6.2592333404731102e+00 1.0907890193444155e+01 1.7263349495693284e+01 -8 -7 13
485 1 3.7584082789744730e+00 6.7611813451994012e+00 2.3834940431361645e+01 -13 -4 80
151 1 2.3551470894524269e+00 8.7931948993210778e+00 2.2303865122868178e+01 -42 -37 -8
217 1 7.8545343178991232e+00 9.0833555681921787e+00 2.0959366430871938e+01 96 -45 79
87 1 7.7861347496259823e+00 9.4004213168743878e+00 2.3737200539440384e+01 -7 40 84
161 1 5.0885946152195096e+00 3.1778905846974799e+00 2.2423244355555891e+01 31 -35 43
503 1 1.0470462698089040e+01 7.3702031185085488e+00 1.7997175037985695e+01 -13 0 26
323 1 1.5266624389583798e+00 8.2515627650367893e+00 1.4173586489769315e+01 16 -111 23
178 1 7.8913638079747495e+00 7.7507316615418373e+00 1.8671705066734472e+01 70 32 -61
52 1 7.3705954634570983e+00 1.1626286371974869e+01 1.9775809021175558e+01 101 -90 137
210 1 2.5676490610134302e+00 4.6860282316860795e+00 1.9505712549406994e+01 -5 2 39
244 1 9.1183539679125740e+00 3.1563981661288913e+00 2.0812621018829493e+01 -40 70 4
97 1 7.1826427531806827e+00 1.9985150782248082e-01 1.4307229206384603e+01 26 62 -10
158 1 6.7898567622699941e+00 8.1600975202633341e-01 1.8045806653614587e+01 -63 58 -87
42 1 1.1923500391230467e+01 7.2385655922160836e+00 1.3673564935941362e+01 1 72 -69
434 1 8.8649592794908294e-01 1.1738806477398867e+01 1.6179877203525905e+01 48 -32 -82
185 1 1.1114057775537209e+01 8.4589384032283572e+00 2.4080393265814436e+01 2 13 -13
179 1 1.7033884124782059e+00 1.0669362101186383e+01 1.2439384776834929e+01 -74 -72 -40
53 1 3.6058714944845971e-01 3.8869379813812208e+00 2.1061436019510101e+01 57 104 142
12 1 7.7517412419637193e+00 1.0701462745286491e+01 1.3739806867026186e+01 53 -39 62
265 1 4.4010984647433062e+00 1.5914850327366321e+00 1.3267346837205844e+01 -76 -52 61
297 1 1.0406145032322037e+01 5.1379709270191158e+00 1.2640353440897970e+01 8 30 -11
79 1 8.9541287858659526e+00 4.7354949223515703e+00 2.4678823269711170e+01 -2 -96 101
247 1 8.5777358427548318e+00 8.4896410472000383e+00 1.2479036037276574e+01 14 -15 13
234 1 5.9832699582734010e+00 1.2817611119830351e+01 2.7091292468657531e+00 69 -12 19
274 1 8.7624247730065754e+00 1.4330142342492101e+01 1.0410338174704103e+01 -45 30 5
507 1 1.0974593014525540e+01 2.2023397697178424e+01 3.6313467099391664e-02 -60 21 -15
384 1 7.8111662739680439e+00 1.3859349996760951e+01 7.6630046496312980e+00 2 8 6
126 1 1.0559310021957772e+01 2.1417581417974588e+01 1.1503134191053785e+01 -33 -35 -33
266 1 2.9797231065027683e+00 2.3350452918203988e+01 1.1274518768812028e+01 31 -59 15
261 1 9.3277747533408952e+00 1.7897642333300279e+01 5.6229000911294333e+00 9 35 -118
423 1 5.6775683615657291e-01 1.3240898598247467e+01 9.6204205931089160e+00 -14 5 57
477 1 9.6361314241363836e+00 1.3297859873900345e+01 5.2840927348973690e+00 37 -7 36
396 1 6.3202735654000062e+00 2.2198231072382196e+01 6.2044855929733504e+00 -5 -2 18
443 1 7.7587050205185797e+00 2.1763542873733776e+01 3.6697124994379258e+00 -106 23 -13
213 1 1.1214319501955343e+01 2.3536733780114730e+01 4.1918275177459137e+00 -47 -9 14
197 1 9.1449329365468639e+00 2.0642553095165106e+01 6.1724189015180970e+00 9 38 51
121 1 1.0431333992624886e+01 2.1167547780325684e+01 2.5240775660242711e+00 -9 5 5
441 1 3.0745881783333853e+00 1.4676664765157119e+01 4.5949200947108260e-01 -2 -63 -14
166 1 4.0308232423731010e+00 1.5790565320640308e+01 9.4418022183584753e+00 36 -11 -21
145 1 2.7640587429906560e-01 1.6228060209602905e+01 7.5324643739131210e+00 28 -5 -47
428 1 9.6272157631601818e+00 1.7929519028245473e+01 8.3803584803191615e+00 62 -8 -3
196 1 5.0784854677627091e+00 2.1331553886676861e+01 2.4828016034380744e+00 8 19 14
124 1 2.7590020687829422e+00 1.5980190176549486e+01 2.9815928341657636e+00 -54 155 -25
154 1 1.7877978185829477e+00 2.4312485731952719e+01 7.5587295295765999e+00 100 -28 3
404 1 4.8140111924677562e+00 1.3861118826217384e+01 7.7380140471658994e+00 -22 132 52
250 1 8.4196122204073145e+00 1.6881047516977347e+01 1.0614739228044364e+01 -10 13 165
444 1 1.5683123866980488e+00 1.3683044656418595e+01 3.6186431362674933e+00 -1 -30 16
394 1 5.9347782177656301e+00 1.7709012076288047e+01 1.1490466572745996e+01 -107 1 -21
495 1 7.5288117136501889e+00 2.1821889755237230e+01 9.5801171458115757e+00 -31 9 -59
189 1 6.0499248255993834e+00 2.4075172723452148e+01 4.4146940087661690e-01 114 -49 -33
99 1 3.7832135259618007e+00 1.8467558624327800e+01 5.5952127456218204e+00 -2 -8 42
506 1 2.3798184660405197e+00 2.1847253424862910e+01 7.9409454066479430e+00 -17 -23 -3
175 1 7.9660360847645251e+00 1.3122625319418924e+01 8.6201670061523461e-01 39 -1 -21
120 1 1.0101024300760850e+01 1.6484995074092769e+01 1.3965427222307372e+00 -3 -69 69
71 1 1.0764205831505347e+01 2.0645838230184690e+01 8.5320928603478201e+00 61 -68 -65
194 1 3.4163633450814923e+00 2.3298889417184089e+01 8.4918380799409265e-01 44 107 6
101 1 7.1800070192893104e+00 1.6631557184646358e+01 7.1483813214484737e+00 -31 -26 68
386 1 1.1920429875830933e+01 1.7878327968547598e+01 4.5550886450304295e+00 81 -48 3
129 1 7.5853041292981738e+00 1.8819694726226672e+01 3.6090172969246632e+00 -43 -34 -81
92 1 6.0470196442434287e-01 2.1867769146005326e+01 3.5316675812393865e+00 -51 55 -104
127 1 4.8998091997102700e+00 1.8011330635780674e+01 8.1952065560645941e+00 53 67 80
400 1 3.8362916072045432e+00 1.3555149151393644e+01 5.2652499438394136e+00 59 23 -24
420 1 1.3161062650552788e+00 1.7655978041847739e+01 9.6661446723187805e-01 32 -28 120
208 1 3.7121162422850196e+00 2.1292313134837002e+01 5.6421339159946697e+00 24 85 -12
10 1 2.1077020357506888e+00 1.8492254996186841e+01 1.1892181304478695e+01 -85 57 -25
301 1 1.2987921665928757e+00 1.6993949690125515e+01 5.2654339503145726e+00 120 30 28
205 1 4.7025135477561086e+00 1.5043729410683817e+01 1.2028256001154023e+01 -32 -17 -61
50 1 5.0095675964568285e+00 1.7300216515752311e+01 3.3413705974334853e+00 10 29 -37
24 1 2.8176500365800234e+00 2.0714945962863631e+01 1.0284726779178396e+01 29 -57 68
380 1 1.1194560521461185e+01 1.5092382964675958e+01 1.1860587207543553e+01 -5 82 61
104 1 5.4486205008433233e+00 1.8896704308970296e+01 8.8393732059492858e-01 77 22 -16
455 1 8.9334009547780333e+00 1.5736654020824428e+01 3.8622635991110847e+00 51 101 23
411 1 1.1518384487542079e+00 1.6231719496551410e+01 1.0100709239451517e+01 25 111 159
156 1 5.3487420658527558e+00 1.9813599144973931e+01 1.0024282316274515e+01 43 31 -16
143 1 3.0575483621521533e+00 2.3210485970799180e+01 3.6455754898256023e+00 41 0 -4
55 1 6.0539643643171432e+00 1.5082436409707393e+01 4.6866234003229446e+00 29 65 -19
34 1 6.7579749230337460e-01 2.1937762473282170e+01 1.2214292856668363e+01 -120 -19 125
347 1 9.0636642361082593e+00 1.9194645058357182e+01 1.4297875439870413e+00 -124 -1 -2
310 1 7.6108318102317014e+00 2.4093877816156201e+01 7.8374823269415987e+00 -11 -13 14
232 1 2.5886253551915595e-01 1.3409298573138651e+01 6.8306487845320909e+00 95 39 32
319 1 1.0693302001000529e+01 1.3985585555671470e+01 1.5994876543886316e-01 -36 -2 52
13 1 8.0835261631333140e+00 2.3198827386027133e+01 1.1964977998533337e+01 134 -11 71
305 1 8.2683470124504286e+00 2.4428662087498495e+01 3.5064129248006575e+00 15 93 29
466 1 2.0692801174266862e-02 2.1489605127069698e+01 9.4395483127845947e-01 111 -31 -23
147 1 1.2250365437212281e+01 1.7043775397120090e+01 8.2220093267796113e+00 -30 28 92
372 1 8.9383346064711375e+00 1.5783394630706809e+01 1.5421269987650776e+01 17 -2 16
113 1 7.2257596923952701e+00 1.8961603451874669e+01 1.6706593040870288e+01 -44 27 86
215 1 6.4563554303610458e+00 1.6076515199722920e+01 1.9278957440931439e+01 1 -138 -42
325 1 2.4969762757402072e+00 1.9804729948681278e+01 1.6461927121046209e+01 -82 33 33
284 1 2.4344807066871983e+00 2.2485440597085457e+01 2.2969252806982404e+01 -84 -63 -7
107 1 5.5444943001887275e+00 1.3453999866821269e+01 2.0479431991020171e+01 -31 55 -135
385 1 8.2454814809545010e+00 2.3818341343447518e+01 1.6746768134682011e+01 47 28 50
280 1 1.5885108976185913e+00 1.7410435348533284e+01 1.8301271399354071e+01 18 -44 155
108 1 5.0409477167533492e+00 2.3385851126912190e+01 1.3415335805579897e+01 40 -37 32
109 1 7.2989255247887854e+00 2.1177724284379106e+01 1.3793492650803991e+01 -84 -37 -49
341 1 9.8230156506866950e-01 1.7917066709594675e+01 2.3136836802331498e+01 41 -37 68
446 1 9.8445945118348863e+00 1.8090732775457493e+01 1.6646531913286978e+01 26 32 -15
358 1 6.0672752175160243e+00 1.4112906592601215e+01 2.3146722391036263e+01 -27 90 38
186 1 1.0755468886664126e+01 2.3238501463686919e+01 1.5063505021068679e+01 -24 168 36
492 1 3.0847954253350909e+00 1.3519885458756546e+01 1.6730493725269170e+01 1 -18 48
317 1 5.6846550687888273e+00 1.2494529610729529e+01 1.2934569745451975e+01 113 -28 -31
306 1 1.3813651118214680e+00 1.5703696939720221e+01 1.6141125478138935e+01 -8 66 -66
70 1 1.1654718254215378e+01 1.5555976431399158e+01 2.2704629596173330e+01 88 -6 10
436 1 9.2298247643248263e+00 2.0854542553738280e+01 1.6022853490471054e+01 47 70 20
36 1 6.3555198550563361e+00 1.6080058291887859e+01 1.6508215525768385e+01 110 63 121
30 1 2.5204544852382811e+00 1.6062062842954369e+01 1.3427043914940704e+01 -84 1 -12
238 1 5.6913759328461611e+00 2.0510900702558914e+01 1.9659560435018506e+01 50 16 -18
361 1 6.7290708454947721e+00 2.3257675628907027e+01 2.2749761348163908e+01 -58 112 -11
6 1 9.9926719779187909e+00 1.8254329486464741e+01 1.9380236632754386e+01 83 19 -29
77 1 4.4834098824692567e-02 1.2759318241595803e+01 1.9738376031796193e+01 55 -26 8
1 1 1.9990706263284315e+00 1.5624319797850481e+01 2.0729712867837012e+01 -50 -42 61
409 1 1.2312183871539037e+01 2.0728034640567060e+01 1.6109202434146386e+01 -63 82 69
279 1 9.4617145216849394e+00 1.3519462487900562e+01 1.9154420288722893e+01 -40 160 49
442 1 9.3220653273505256e+00 1.5914965946302319e+01 2.0815300089819946e+01 20 -11 -105
357 1 6.1113352821202915e-01 1.9616070330569173e+01 1.9734182296928939e+01 10 -17 -10
257 1 1.1656011558982014e+01 1.2488724982234048e+01 1.2687727061702358e+01 -20 14 45
137 1 1.0150399831040296e+01 2.1016380195455366e+01 2.2355051629339979e+01 -4 -24 57
281 1 6.0418531472516590e-01 2.0065579996171621e+01 1.4005084246264898e+01 37 -36 107
84 1 9.7157909814821153e+00 1.7114102423082969e+01 1.3100290173687727e+01 35 57 27
295 1 7.8762374327044489e+00 1.9035579403220936e+01 2.1372941111864382e+01 -44 -11 -11
216 1 1.0145140191120108e+01 2.4001529812876683e+01 1.8761783162541033e+01 -32 -1 163
220 1 9.6995127451702459e+00 1.8195404968974280e+01 2.3616192101851865e+01 51 1 2
4 1 4.2893635846439651e+00 2.4350085293149270e+01 1.9250632036505760e+01 21 -79 10
504 1 1.0018621223188699e+01 1.3520592641498226e+01 1.6645828028049714e+01 -36 -26 46
252 1 5.8412556369441937e+00 1.3422079197498132e+01 1.5622143446227156e+01 -52 -85 6
405 1 4.2062095666840404e+00 1.7359425057037537e+01 1.5393481590566473e+01 -26 -4 53
395 1 3.1028247904654984e+00 1.2924692828598884e+01 1.9830441058952438e+01 -33 45 -54
383 1 9.5881346387020894e-01 2.0354481904480597e+01 2.2167756820443557e+01 -46 89 -23
356 1 5.0672373471029539e+00 1.6529124710428643e+01 2.4496809198642339e+01 -65 2 -2
397 1 1.1738353555058010e+01 1.3129029106511096e+01 2.0926402199450404e+01 -50 49 -46
221 1 3.5296941755032312e+00 1.7259760882650490e+01 2.2380498567438547e+01 3 2 42
204 1 4.3320439005061813e+00 2.1915714246775504e+01 1.5519948538088553e+01 18 -24 -188
447 1 4.3116334523123552e+00 1.8400542704861337e+01 1.8273625282990974e+01 -6 -117 24
125 1 6.0859877139364746e+00 1.6795122807343990e+01 2.1798944122031408e+01 -43 -46 -11
337 1 1.8660485512491476e+00 2.2932213950591006e+01 1.6977824872630283e+01 26 10 -42
454 1 8.5072677180037530e+00 1.5686155158369885e+01 2.3543281463579099e+01 -47 51 16
61 1 5.8803116002225302e+00 1.8806742623940778e+01 1.3863469159315896e+01 88 -58 100
470 1 6.4434908216514257e+00 2.1678683115442205e+01 1.7103486973022640e+01 25 -35 -135
15 1 1.2019541764981472e+01 1.8893621398589161e+01 2.1267641124542106e+01 7 -12 -138
184 1 7.4281988696643539e+00 2.0696179378966459e+01 2.3790607892645674e+01 0 7 36
390 1 4.5022060416536078e+00 2.2545988018176462e+01 2.1416674541231156e+01 -16 -40 -21
481 1 1.4442242575616753e+00 1.4469488574731995e+01 2.3110727012273653e+01 42 -10 -21
254 1 1.0987235161210169e+01 1.9583342514494106e+01 1.3542014369362615e+01 43 92 39
106 1 8.9740576246834749e+00 2.3388129206215456e+01 2.1088145880737279e+01 15 -18 1
33 1 1.0981578862705160e+01 2.4390076550054211e+01 1.2564901455305833e+01 -100 -37 -20
462 1 1.1170189852442750e+01 2.4774527773097372e+01 2.4318639489922472e+01 -70 13 35
5 1 5.0370415612920283e-01 1.4452674960265446e+01 1.2525249515930488e+01 43 39 -2
174 1 1.5557281022510107e+01 9.2854196741220001e+00 8.0075653990047542e+00 13 94 -24
152 1 1.5516680996210948e+01 2.4923682870058257e+00 2.2164266358391500e+00 -57 -149 -5
123 1 1.3822477809502256e+01 8.2392967783456310e+00 2.5065702238774850e+00 -69 -4 1
167 1 2.3609520958512988e+01 3.1258919583231317e+00 1.8866087599598795e+00 26 -18 3
225 1 1.5898878666203766e+01 8.4760616424613602e+00 5.4625995924579138e+00 21 77 19
271 1 2.1655497706551930e+01 4.6220564422743573e+00 3.2785873005171147e+00 40 28 -52
64 1 1.2493244202613619e+01 3.3508958506244455e+00 1.1334133628317810e+01 -36 65 20
211 1 2.2336554988240426e+01 1.1987965688220172e+01 9.8088845501110100e+00 -36 16 -19
452 1 1.8254543848728286e+01 6.4270781731901918e+00 5.0885981443525639e+00 7 -4 84
219 1 1.2493446157702728e+01 4.5226127240825171e+00 2.6438901771248267e+00 -25 -18 -101
269 1 2.2693654848579548e+01 9.2722237242012646e+00 1.0679862587010838e+01 24 -36 2
408 1 1.7512239129599870e+01 7.5630177296029810e+00 8.8032321005570164e+00 -141 31 58
496 1 1.9650450055607255e+01 9.1770626209464119e+00 8.8397904190568557e+00 -6 -22 21
433 1 1.4493125874273018e+01 5.1394701888275236e+00 1.0884764056160382e+01 16 -50 -42
389 1 1.8557165058895578e+01 7.5300328270849071e-01 3.5319157044376581e-01 5 72 -15
135 1 1.8497202518776561e+01 5.0570484644264662e+00 9.4567694932389550e+00 2 53 -68
80 1 2.2709841931833285e+01 1.1951138769832099e+01 6.8820967150448791e+00 29 50 9
478 1 2.2464961149090016e+01 5.1015346006229176e+00 8.6696857860472178e+00 30 -6 31
66 1 2.2497417787546901e+01 7.2870571752735991e+00 2.6295484231233197e+00 -22 33 -32
114 1 1.6729483963976804e+01 1.1582567786600290e+01 1.1495351287114893e+01 -12 12 -12
48 1 1.9790201665062181e+01 1.1628283362172581e+01 8.3085053415339107e+00 13 -5 32
426 1 1.5748492021208683e+01 4.8109203937662581e+00 8.4309923681661854e+00 83 -8 62
290 1 1.9471326073189118e+01 1.0849655105505414e+01 1.2221993433612077e+01 -10 -92 -75
163 1 1.9325118784292396e+01 5.7014300745908297e+00 2.5165716160635085e+00 -42 -64 7
239 1 1.3329883269546276e+01 1.1887202206692043e+01 3.6560487452813994e+00 44 -18 5
375 1 1.4672923936159737e+01 1.5715902532661334e+00 1.0926229735385848e+01 8 53 -119
351 1 2.3980950417641569e+01 8.3390230197340838e+00 4.9869835768207977e+00 25 -31 -66
47 1 1.7137131459095826e+01 1.2006060115407914e+01 4.8732669216189244e+00 22 61 -102
85 1 2.4498924528437314e+01 6.0593262787354867e+00 8.3564574094481714e-01 19 39 -102
445 1 2.0230638545480627e+01 7.3521704397533467e+00 6.6444224533826421e+00 119 70 5
287 1 1.4784381732082892e+01 9.6068669197469365e+00 1.1129923840425608e+01 -18 -3 -5
313 1 2.2546438628417768e+01 8.6414951274120078e-01 3.3330928288895176e+00 -46 34 37
212 1 2.1432777871671853e+01 7.0786805826716996e+00 9.8580259768329537e+00 -12 -41 -35
458 1 1.7861029756947968e+01 3.5216205458854346e+00 1.2271674803246466e+00 -36 46 0
117 1 1.2505858826600864e+01 2.0213348726450442e+00 3.8131871442979057e+00 51 49 90
345 1 2.1198596680171892e+01 2.9335860409900434e+00 8.0045076437324418e+00 89 139 -20
473 1 1.6335480854148159e+01 4.5607852627606507e+00 5.4766893755628487e+00 -40 -35 69
464 1 1.9460780338735375e+01 1.6136220881448420e+00 1.1480652789221676e+01 13 20 -23
369 1 1.8373696089156649e+01 4.3440633305691971e+00 1.1987061909187155e+01 1 59 5
236 1 1.5393872525245538e+01 1.8969886625058547e+00 5.0655704746499088e+00 38 81 64
457 1 1.9756928814444283e+01 8.2197348355019511e+00 1.7469654096173406e+00 -15 -35 71
302 1 1.2570430014837120e+01 1.1142630659585590e+01 1.0393358961817299e+01 40 -69 -29
272 1 1.7409382419170598e+01 9.9702982998652345e+00 1.7853148861116359e+00 -21 3 107
182 1 1.5643105929336171e+01 1.9357093775051302e+00 8.0999554517676593e+00 116 56 44
350 1 1.5511617198840925e+01 1.0217736043166909e+01 3.6642118622791360e+00 25 -1 40
402 1 1.3100798368719897e+01 5.3882973342890397e+00 6.8071891525275019e+00 36 56 -28
476 1 1.4361547824711224e+01 6.0607547086803342e+00 4.3183690559955918e+00 -32 -13 -53
69 1 1.3208179690861813e+01 8.0675223508987948e+00 7.9361555761432099e+00 -20 3 0
141 1 1.7931344172817475e+01 7.0074483418850564e-01 6.7025387706032236e+00 93 76 -10
459 1 2.1971273594880653e+01 2.3045233955577111e+00 1.0748142455321258e+01 61 -16 49
378 1 1.8752963575685893e+01 3.5896084715956560e+00 6.9805265694217002e+00 15 -15 -65
118 1 1.9582997361711850e+01 1.0666121434319003e+01 3.6270370305070840e+00 -30 134 -80
112 1 2.2360642179448824e+01 1.1147988234274385e+01 2.4983752961725836e+00 17 91 -34
267 1 2.1563628179222100e+01 9.6893540924299693e+00 5.4891337939522424e+00 -95 65 -56
242 1 2.4158940241836202e+01 7.9318414824638006e-01 6.8578869064212320e+00 8 4 -52
74 1 1.6277769130401634e+01 1.2242094152965448e+01 7.6363484073268406e+00 4 58 -10
128 1 2.2406652782686390e+01 6.0083693531193987e+00 5.5519840434095826e+00 22 4 -22
348 1 1.7205729990570699e+01 3.1497387906448576e-01 1.1050794439460537e+01 -9 -19 20
328 1 1.2974992325138759e+01 1.2098113054117707e+01 9.3115454158037470e-01 73 79 -13
460 1 1.2746388792626250e+01 7.2655908698669043e+00 1.0612742569449889e+01 -115 128 33
83 1 1.2886374426864199e+01 6.4922161866979522e+00 3.3970081155697607e-01 37 2 5
157 1 1.3843891999308390e+01 3.8709509672426652e+00 3.2669707450119745e-01 -9 -22 63
479 1 2.0933728303722440e+01 1.1556694889308673e+01 2.4583617412087975e+01 -29 -13 -47
334 1 2.3279266102658418e+01 7.7388513869091335e+00 1.7422694826607799e+01 43 70 14
256 1 1.8046350385111683e+01 8.1112309287269324e-01 1.7454964843261465e+01 37 20 -35
282 1 1.6597216893683651e+01 1.2063522649949427e+01 1.7034622471206049e+01 35 27 73
91 1 1.3518166262959813e+01 3.9335249989326038e-01 1.3346361404891912e+01 -28 7 21
41 1 2.4561627297697651e+01 4.9424811063315648e+00 1.4939208901567650e+01 72 -10 38
209 1 1.7447950368975651e+01 3.5767926273041724e+00 1.7125038598435985e+01 2 10 -43
86 1 2.0000663122560780e+01 8.8921145164523629e+00 2.3920891416861551e+01 -39 -60 84
243 1 2.2024287508764861e+01 1.0247501505906961e+01 1.8628717444560234e+01 15 -35 -15
511 1 2.4549622027546242e+01 1.3066026389842316e+00 2.1247231218761328e+01 47 7 102
366 1 1.7114106824083578e+01 1.9691877448584119e+00 1.4769038118140770e+01 160 -5 -47
14 1 2.0709734818819733e+01 3.8861438625335292e+00 2.3079467871988815e+01 50 -27 35
3 1 2.0819223593603869e+01 1.9454064862619005e+00 1.7455767256803430e+01 11 51 26
406 1 1.7824160255317100e+01 4.4718203371907395e+00 2.3346191286700716e+01 44 142 5
501 1 2.3477138284227742e+01 7.7342791426149988e+00 1.4448960762431609e+01 31 -17 -9
100 1 1.4349655198439825e+01 2.8346605647994392e+00 1.4798768505218565e+01 48 -127 -20
465 1 1.8996627139150497e+01 1.0105212781000331e+01 1.4658854903915481e+01 35 36 40
22 1 1.5036972958209699e+01 9.5521689404467001e+00 1.9471058813111529e+01 1 -72 72
228 1 1.5334200573994242e+01 1.0996743811989962e+01 2.2175164799628639e+01 -36 24 19
439 1 2.3445549542418277e+01 4.0062958430396929e+00 1.2640754729548021e+01 26 -40 -72
146 1 1.6005876055366265e+01 1.3682287410119323e-01 1.9860525614771053e+01 -9 -12 9
373 1 1.4027616571149656e+01 4.6036009496003425e+00 1.6998201080095139e+01 50 40 -44
318 1 1.9764957250396879e+01 5.3735363608992541e+00 1.6179833543739164e+01 38 4 154
132 1 2.2405238193036777e+01 5.2483459257816767e+00 1.6937692325452726e+01 -47 -1 -68
314 1 1.4196081481300531e+01 8.8988125481848428e+00 1.3776295001940650e+01 -11 23 -8
187 1 2.1093104491193355e+01 8.7516902712241560e+00 1.5985159625916257e+01 -1 22 -12
7 1 1.6061039859816589e+01 4.1933336443451346e+00 1.2984459779100879e+01 51 8 58
474 1 1.8328248853802076e+01 7.9430805540968281e+00 1.6699283867309468e+01 -10 -59 -27
472 1 1.6017525051642465e+01 6.6105767421308537e+00 1.7339188712038418e+01 28 -30 63
49 1 2.0648740100660568e+01 5.5421558796742278e+00 2.0904575148877896e+01 -7 29 -23
223 1 1.7480705528401732e+01 4.5651425499308402e+00 2.0460530004310691e+01 104 37 8
276 1 2.0434417229747435e+01 4.6840727637930923e+00 1.3583424973044350e+01 33 165 -26
246 1 1.9452435052637352e+01 1.0328877218904404e+01 1.9895098701228157e+01 78 60 102
260 1 2.3999596052647330e+01 2.8774337076607313e+00 1.8575702934640727e+01 -30 2 57
8 1 2.3710655972735672e+01 1.0630616400208757e+01 2.3760665491384362e+01 -27 24 -27
437 1 2.3617963032304161e+01 7.7958457155658722e+00 2.3616696036265850e+01 10 9 -117