LAMMPS (4 Jan 2019)
# LAMMPS input script
boundary p p p
units       real
atom_style  atomic
atom_modify map array sort 0 0
read_data   data.in
  orthogonal box = (0.0191589 0.0191589 0.0191589) to (24.8158 24.8158 24.8158)
  1 by 2 by 3 MPI processor grid
  reading atoms ...
  512 atoms
  reading velocities ...
  512 velocities
pair_style  tersoff
pair_coeff  * * WT_ML-BOP.tersoff WT
Reading potential file WT_ML-BOP.tersoff with DATE: 2018-05-25

# ----- Variables -----
variable seed equal 80347
variable T equal 240.0000000000
variable P equal 986.923 # 1 bar

# ----- Initialize -----
neighbor 2.0 nsq
neigh_modify delay 0 every 1 check yes
timestep 5 # 5 fs   # Fix timestep here

# ----- Log file output -----
thermo       10000
thermo_style    custom  time temp press pe ke lx ly lz density vol
thermo_modify line multi norm yes flush yes format float %.6f

# ----- equilibruate --------
#velocity  all create ${T} ${seed}
fix 1 all npt temp ${T} ${T} 100 iso ${P} ${P} 1000
fix 1 all npt temp 240 ${T} 100 iso ${P} ${P} 1000
fix 1 all npt temp 240 240 100 iso ${P} ${P} 1000
fix 1 all npt temp 240 240 100 iso 986.923 ${P} 1000
fix 1 all npt temp 240 240 100 iso 986.923 986.923 1000
run 2000000 # 10 ns
Neighbor list info ...
  update every 1 steps, delay 0 steps, check yes
  max neighbors/atom: 2000, page size: 100000
  master list distance cutoff = 5.55327
  ghost atom cutoff = 5.55327
  1 neighbor lists, perpetual/occasional/extra = 1 0 0
  (1) pair tersoff, perpetual
      attributes: full, newton on
      pair build: full/nsq
      stencil: none
      bin: none
Per MPI rank memory allocation (min/avg/max) = 2.685 | 2.687 | 2.689 Mbytes
---------------- Step        0 ----- CPU =      0.0000 (sec) ----------------
Time     = 0.000000 Temp     = 294.450891 Press    = 562.722559 
PotEng   = -8.494318 KinEng   = 0.875988 Lx       = 24.796682 
Ly       = 24.796682 Lz       = 24.796682 Density  = 1.004569 
Volume   = 15246.871242 
---------------- Step    10000 ----- CPU =      5.9310 (sec) ----------------
Time     = 50000.000000 Temp     = 242.202397 Press    = 668.401859 
PotEng   = -8.745463 KinEng   = 0.720549 Lx       = 24.442388 
Ly       = 24.442388 Lz       = 24.442388 Density  = 1.048889 
Volume   = 14602.623762 
---------------- Step    20000 ----- CPU =     12.1579 (sec) ----------------
Time     = 100000.000000 Temp     = 233.579891 Press    = 514.385104 
PotEng   = -8.732484 KinEng   = 0.694897 Lx       = 24.380706 
Ly       = 24.380706 Lz       = 24.380706 Density  = 1.056870 
Volume   = 14492.351430 
---------------- Step    30000 ----- CPU =     18.0420 (sec) ----------------
Time     = 150000.000000 Temp     = 240.757320 Press    = 609.564520 
PotEng   = -8.703124 KinEng   = 0.716250 Lx       = 24.515579 
Ly       = 24.515579 Lz       = 24.515579 Density  = 1.039523 
Volume   = 14734.196166 
---------------- Step    40000 ----- CPU =     24.1566 (sec) ----------------
Time     = 200000.000000 Temp     = 242.855800 Press    = 1161.042284 
PotEng   = -8.848059 KinEng   = 0.722493 Lx       = 24.356091 
Ly       = 24.356091 Lz       = 24.356091 Density  = 1.060078 
Volume   = 14448.500300 
---------------- Step    50000 ----- CPU =     30.1489 (sec) ----------------
Time     = 250000.000000 Temp     = 239.215740 Press    = 515.741911 
PotEng   = -8.809309 KinEng   = 0.711664 Lx       = 24.545323 
Ly       = 24.545323 Lz       = 24.545323 Density  = 1.035748 
Volume   = 14787.892037 
---------------- Step    60000 ----- CPU =     36.2151 (sec) ----------------
Time     = 300000.000000 Temp     = 242.240920 Press    = 1845.026824 
PotEng   = -8.766263 KinEng   = 0.720664 Lx       = 24.348818 
Ly       = 24.348818 Lz       = 24.348818 Density  = 1.061028 
Volume   = 14435.560819 
---------------- Step    70000 ----- CPU =     42.1604 (sec) ----------------
Time     = 350000.000000 Temp     = 254.261313 Press    = 1505.794422 
PotEng   = -8.773010 KinEng   = 0.756424 Lx       = 24.338138 
Ly       = 24.338138 Lz       = 24.338138 Density  = 1.062425 
Volume   = 14416.573031 
---------------- Step    80000 ----- CPU =     48.0010 (sec) ----------------
Time     = 400000.000000 Temp     = 235.266343 Press    = 404.957668 
PotEng   = -8.812058 KinEng   = 0.699915 Lx       = 24.491935 
Ly       = 24.491935 Lz       = 24.491935 Density  = 1.042536 
Volume   = 14691.606737 
---------------- Step    90000 ----- CPU =     53.8475 (sec) ----------------
Time     = 450000.000000 Temp     = 240.987807 Press    = 1227.581699 
PotEng   = -8.782216 KinEng   = 0.716936 Lx       = 24.487008 
Ly       = 24.487008 Lz       = 24.487008 Density  = 1.043166 
Volume   = 14682.742228 
---------------- Step   100000 ----- CPU =     59.7363 (sec) ----------------
Time     = 500000.000000 Temp     = 250.590546 Press    = 1224.456309 
PotEng   = -8.817259 KinEng   = 0.745504 Lx       = 24.446140 
Ly       = 24.446140 Lz       = 24.446140 Density  = 1.048406 
Volume   = 14609.349948 
---------------- Step   110000 ----- CPU =     65.5153 (sec) ----------------
Time     = 550000.000000 Temp     = 252.751786 Press    = 322.305041 
PotEng   = -8.823555 KinEng   = 0.751934 Lx       = 24.520382 
Ly       = 24.520382 Lz       = 24.520382 Density  = 1.038912 
Volume   = 14742.857812 
---------------- Step   120000 ----- CPU =     71.5645 (sec) ----------------
Time     = 600000.000000 Temp     = 247.761998 Press    = 698.145206 
PotEng   = -8.758896 KinEng   = 0.737089 Lx       = 24.511309 
Ly       = 24.511309 Lz       = 24.511309 Density  = 1.040066 
Volume   = 14726.499973 
---------------- Step   130000 ----- CPU =     77.6179 (sec) ----------------
Time     = 650000.000000 Temp     = 229.334461 Press    = 1452.683123 
PotEng   = -8.846585 KinEng   = 0.682267 Lx       = 24.268117 
Ly       = 24.268117 Lz       = 24.268117 Density  = 1.071648 
Volume   = 14292.500976 
---------------- Step   140000 ----- CPU =     83.6575 (sec) ----------------
Time     = 700000.000000 Temp     = 246.860371 Press    = 740.843327 
PotEng   = -8.772482 KinEng   = 0.734407 Lx       = 24.354190 
Ly       = 24.354190 Lz       = 24.354190 Density  = 1.060326 
Volume   = 14445.117330 
---------------- Step   150000 ----- CPU =     89.7133 (sec) ----------------
Time     = 750000.000000 Temp     = 238.272147 Press    = 656.563986 
PotEng   = -8.750148 KinEng   = 0.708857 Lx       = 24.522192 
Ly       = 24.522192 Lz       = 24.522192 Density  = 1.038682 
Volume   = 14746.124288 
---------------- Step   160000 ----- CPU =     95.7004 (sec) ----------------
Time     = 800000.000000 Temp     = 249.935382 Press    = 487.522512 
PotEng   = -8.778170 KinEng   = 0.743555 Lx       = 24.449452 
Ly       = 24.449452 Lz       = 24.449452 Density  = 1.047980 
Volume   = 14615.288038 
---------------- Step   170000 ----- CPU =    101.6662 (sec) ----------------
Time     = 850000.000000 Temp     = 232.296163 Press    = 764.445301 
PotEng   = -8.711506 KinEng   = 0.691078 Lx       = 24.448107 
Ly       = 24.448107 Lz       = 24.448107 Density  = 1.048153 
Volume   = 14612.876513 
---------------- Step   180000 ----- CPU =    107.6880 (sec) ----------------
Time     = 900000.000000 Temp     = 248.292879 Press    = 885.551208 
PotEng   = -8.834017 KinEng   = 0.738668 Lx       = 24.506518 
Ly       = 24.506518 Lz       = 24.506518 Density  = 1.040676 
Volume   = 14717.865172 
---------------- Step   190000 ----- CPU =    113.8510 (sec) ----------------
Time     = 950000.000000 Temp     = 240.975339 Press    = 1347.781863 
PotEng   = -8.830731 KinEng   = 0.716899 Lx       = 24.414178 
Ly       = 24.414178 Lz       = 24.414178 Density  = 1.052529 
Volume   = 14552.121926 
---------------- Step   200000 ----- CPU =    119.7866 (sec) ----------------
Time     = 1000000.000000 Temp     = 241.802008 Press    = 293.379740 
PotEng   = -8.738707 KinEng   = 0.719358 Lx       = 24.453836 
Ly       = 24.453836 Lz       = 24.453836 Density  = 1.047417 
Volume   = 14623.150950 
---------------- Step   210000 ----- CPU =    125.8485 (sec) ----------------
Time     = 1050000.000000 Temp     = 244.789714 Press    = 480.352828 
PotEng   = -8.765351 KinEng   = 0.728246 Lx       = 24.422671 
Ly       = 24.422671 Lz       = 24.422671 Density  = 1.051432 
Volume   = 14567.314127 
---------------- Step   220000 ----- CPU =    131.9844 (sec) ----------------
Time     = 1100000.000000 Temp     = 243.698554 Press    = 665.789852 
PotEng   = -8.779701 KinEng   = 0.725000 Lx       = 24.406716 
Ly       = 24.406716 Lz       = 24.406716 Density  = 1.053495 
Volume   = 14538.782328 
---------------- Step   230000 ----- CPU =    138.0774 (sec) ----------------
Time     = 1150000.000000 Temp     = 239.830984 Press    = 622.655679 
PotEng   = -8.737444 KinEng   = 0.713494 Lx       = 24.368439 
Ly       = 24.368439 Lz       = 24.368439 Density  = 1.058467 
Volume   = 14470.486038 
---------------- Step   240000 ----- CPU =    144.0753 (sec) ----------------
Time     = 1200000.000000 Temp     = 245.338298 Press    = 254.847354 
PotEng   = -8.836634 KinEng   = 0.729879 Lx       = 24.365744 
Ly       = 24.365744 Lz       = 24.365744 Density  = 1.058818 
Volume   = 14465.685209 
---------------- Step   250000 ----- CPU =    150.0124 (sec) ----------------
Time     = 1250000.000000 Temp     = 245.334624 Press    = 1328.872593 
PotEng   = -8.818526 KinEng   = 0.729868 Lx       = 24.423503 
Ly       = 24.423503 Lz       = 24.423503 Density  = 1.051324 
Volume   = 14568.802160 
---------------- Step   260000 ----- CPU =    156.0475 (sec) ----------------
Time     = 1300000.000000 Temp     = 241.308724 Press    = 1209.760590 
PotEng   = -8.796797 KinEng   = 0.717891 Lx       = 24.596523 
Ly       = 24.596523 Lz       = 24.596523 Density  = 1.029294 
Volume   = 14880.624591 
---------------- Step   270000 ----- CPU =    162.0028 (sec) ----------------
Time     = 1350000.000000 Temp     = 260.284491 Press    = 386.348300 
PotEng   = -8.825459 KinEng   = 0.774343 Lx       = 24.648545 
Ly       = 24.648545 Lz       = 24.648545 Density  = 1.022790 
Volume   = 14975.242491 
---------------- Step   280000 ----- CPU =    167.8583 (sec) ----------------
Time     = 1400000.000000 Temp     = 245.560909 Press    = 547.948923 
PotEng   = -8.785987 KinEng   = 0.730541 Lx       = 24.437294 
Ly       = 24.437294 Lz       = 24.437294 Density  = 1.049545 
Volume   = 14593.495872 
---------------- Step   290000 ----- CPU =    173.7409 (sec) ----------------
Time     = 1450000.000000 Temp     = 247.236341 Press    = 45.211555 
PotEng   = -8.765428 KinEng   = 0.735525 Lx       = 24.485770 
Ly       = 24.485770 Lz       = 24.485770 Density  = 1.043324 
Volume   = 14680.515589 
---------------- Step   300000 ----- CPU =    179.8962 (sec) ----------------
Time     = 1500000.000000 Temp     = 238.508509 Press    = 1702.171353 
PotEng   = -8.824538 KinEng   = 0.709560 Lx       = 24.321611 
Ly       = 24.321611 Lz       = 24.321611 Density  = 1.064593 
Volume   = 14387.223814 
---------------- Step   310000 ----- CPU =    185.7272 (sec) ----------------
Time     = 1550000.000000 Temp     = 228.794470 Press    = 606.739703 
PotEng   = -8.757349 KinEng   = 0.680661 Lx       = 24.646992 
Ly       = 24.646992 Lz       = 24.646992 Density  = 1.022984 
Volume   = 14972.412215 
---------------- Step   320000 ----- CPU =    191.5091 (sec) ----------------
Time     = 1600000.000000 Temp     = 237.068978 Press    = 401.694494 
PotEng   = -8.787081 KinEng   = 0.705277 Lx       = 24.546186 
Ly       = 24.546186 Lz       = 24.546186 Density  = 1.035639 
Volume   = 14789.452114 
---------------- Step   330000 ----- CPU =    197.4665 (sec) ----------------
Time     = 1650000.000000 Temp     = 255.327020 Press    = 258.463441 
PotEng   = -8.821904 KinEng   = 0.759595 Lx       = 24.528885 
Ly       = 24.528885 Lz       = 24.528885 Density  = 1.037832 
Volume   = 14758.200230 
---------------- Step   340000 ----- CPU =    203.5187 (sec) ----------------
Time     = 1700000.000000 Temp     = 225.009719 Press    = 92.277581 
PotEng   = -8.771349 KinEng   = 0.669401 Lx       = 24.573485 
Ly       = 24.573485 Lz       = 24.573485 Density  = 1.032191 
Volume   = 14838.850946 
---------------- Step   350000 ----- CPU =    209.3850 (sec) ----------------
Time     = 1750000.000000 Temp     = 242.427375 Press    = 1408.448437 
PotEng   = -8.762135 KinEng   = 0.721219 Lx       = 24.421891 
Ly       = 24.421891 Lz       = 24.421891 Density  = 1.051532 
Volume   = 14565.918962 
---------------- Step   360000 ----- CPU =    215.4751 (sec) ----------------
Time     = 1800000.000000 Temp     = 233.026539 Press    = 1596.769111 
PotEng   = -8.811504 KinEng   = 0.693251 Lx       = 24.444534 
Ly       = 24.444534 Lz       = 24.444534 Density  = 1.048613 
Volume   = 14606.470465 
---------------- Step   370000 ----- CPU =    221.5730 (sec) ----------------
Time     = 1850000.000000 Temp     = 245.511501 Press    = 804.373515 
PotEng   = -8.858522 KinEng   = 0.730394 Lx       = 24.561055 
Ly       = 24.561055 Lz       = 24.561055 Density  = 1.033759 
Volume   = 14816.344199 
---------------- Step   380000 ----- CPU =    227.6316 (sec) ----------------
Time     = 1900000.000000 Temp     = 243.787757 Press    = 1851.073435 
PotEng   = -8.770707 KinEng   = 0.725266 Lx       = 24.428090 
Ly       = 24.428090 Lz       = 24.428090 Density  = 1.050732 
Volume   = 14577.011931 
---------------- Step   390000 ----- CPU =    233.6957 (sec) ----------------
Time     = 1950000.000000 Temp     = 242.046535 Press    = 1223.290585 
PotEng   = -8.762496 KinEng   = 0.720086 Lx       = 24.361864 
Ly       = 24.361864 Lz       = 24.361864 Density  = 1.059324 
Volume   = 14458.776980 
---------------- Step   400000 ----- CPU =    239.7952 (sec) ----------------
Time     = 2000000.000000 Temp     = 244.877078 Press    = 1162.057945 
PotEng   = -8.755524 KinEng   = 0.728506 Lx       = 24.344613 
Ly       = 24.344613 Lz       = 24.344613 Density  = 1.061578 
Volume   = 14428.082461 
---------------- Step   410000 ----- CPU =    245.7842 (sec) ----------------
Time     = 2050000.000000 Temp     = 245.270402 Press    = 1305.128097 
PotEng   = -8.786400 KinEng   = 0.729677 Lx       = 24.439105 
Ly       = 24.439105 Lz       = 24.439105 Density  = 1.049312 
Volume   = 14596.741191 
---------------- Step   420000 ----- CPU =    251.7990 (sec) ----------------
Time     = 2100000.000000 Temp     = 253.599789 Press    = 1568.190663 
PotEng   = -8.831370 KinEng   = 0.754456 Lx       = 24.569881 
Ly       = 24.569881 Lz       = 24.569881 Density  = 1.032646 
Volume   = 14832.322206 
---------------- Step   430000 ----- CPU =    257.8557 (sec) ----------------
Time     = 2150000.000000 Temp     = 253.348350 Press    = 1291.124539 
PotEng   = -8.751197 KinEng   = 0.753708 Lx       = 24.450788 
Ly       = 24.450788 Lz       = 24.450788 Density  = 1.047809 
Volume   = 14617.683840 
---------------- Step   440000 ----- CPU =    263.8592 (sec) ----------------
Time     = 2200000.000000 Temp     = 226.790825 Press    = 1424.347094 
PotEng   = -8.753501 KinEng   = 0.674700 Lx       = 24.410937 
Ly       = 24.410937 Lz       = 24.410937 Density  = 1.052949 
Volume   = 14546.327455 
---------------- Step   450000 ----- CPU =    270.0679 (sec) ----------------
Time     = 2250000.000000 Temp     = 247.914404 Press    = 1780.391487 
PotEng   = -8.814632 KinEng   = 0.737542 Lx       = 24.490879 
Ly       = 24.490879 Lz       = 24.490879 Density  = 1.042671 
Volume   = 14689.706416 
---------------- Step   460000 ----- CPU =    276.0791 (sec) ----------------
Time     = 2300000.000000 Temp     = 232.156386 Press    = 1433.298411 
PotEng   = -8.819937 KinEng   = 0.690662 Lx       = 24.575476 
Ly       = 24.575476 Lz       = 24.575476 Density  = 1.031941 
Volume   = 14842.457908 
---------------- Step   470000 ----- CPU =    281.9267 (sec) ----------------
Time     = 2350000.000000 Temp     = 240.987612 Press    = 910.925990 
PotEng   = -8.768081 KinEng   = 0.716935 Lx       = 24.592463 
Ly       = 24.592463 Lz       = 24.592463 Density  = 1.029804 
Volume   = 14873.257195 
---------------- Step   480000 ----- CPU =    287.6838 (sec) ----------------
Time     = 2400000.000000 Temp     = 254.303733 Press    = 898.214243 
PotEng   = -8.827769 KinEng   = 0.756551 Lx       = 24.507305 
Ly       = 24.507305 Lz       = 24.507305 Density  = 1.040576 
Volume   = 14719.284123 
---------------- Step   490000 ----- CPU =    293.6932 (sec) ----------------
Time     = 2450000.000000 Temp     = 230.772517 Press    = 970.909960 
PotEng   = -8.840759 KinEng   = 0.686546 Lx       = 24.404996 
Ly       = 24.404996 Lz       = 24.404996 Density  = 1.053718 
Volume   = 14535.709972 
---------------- Step   500000 ----- CPU =    299.7182 (sec) ----------------
Time     = 2500000.000000 Temp     = 243.989844 Press    = 338.502392 
PotEng   = -8.806172 KinEng   = 0.725867 Lx       = 24.529745 
Ly       = 24.529745 Lz       = 24.529745 Density  = 1.037723 
Volume   = 14759.753447 
---------------- Step   510000 ----- CPU =    305.6472 (sec) ----------------
Time     = 2550000.000000 Temp     = 232.768020 Press    = 2084.911414 
PotEng   = -8.790761 KinEng   = 0.692482 Lx       = 24.333958 
Ly       = 24.333958 Lz       = 24.333958 Density  = 1.062973 
Volume   = 14409.146410 
---------------- Step   520000 ----- CPU =    311.4944 (sec) ----------------
Time     = 2600000.000000 Temp     = 226.497280 Press    = 1300.977214 
PotEng   = -8.833722 KinEng   = 0.673827 Lx       = 24.681599 
Ly       = 24.681599 Lz       = 24.681599 Density  = 1.018687 
Volume   = 15035.568886 
---------------- Step   530000 ----- CPU =    317.5027 (sec) ----------------
Time     = 2650000.000000 Temp     = 250.087564 Press    = 1440.920898 
PotEng   = -8.795486 KinEng   = 0.744008 Lx       = 24.370152 
Ly       = 24.370152 Lz       = 24.370152 Density  = 1.058244 
Volume   = 14473.537957 
---------------- Step   540000 ----- CPU =    323.4644 (sec) ----------------
Time     = 2700000.000000 Temp     = 225.522999 Press    = 1497.258035 
PotEng   = -8.764391 KinEng   = 0.670928 Lx       = 24.438967 
Ly       = 24.438967 Lz       = 24.438967 Density  = 1.049330 
Volume   = 14596.493566 
---------------- Step   550000 ----- CPU =    329.3167 (sec) ----------------
Time     = 2750000.000000 Temp     = 224.507604 Press    = 1938.708535 
PotEng   = -8.833080 KinEng   = 0.667907 Lx       = 24.432559 
Ly       = 24.432559 Lz       = 24.432559 Density  = 1.050156 
Volume   = 14585.014592 
---------------- Step   560000 ----- CPU =    335.4664 (sec) ----------------
Time     = 2800000.000000 Temp     = 243.567016 Press    = 1469.850455 
PotEng   = -8.820168 KinEng   = 0.724609 Lx       = 24.429451 
Ly       = 24.429451 Lz       = 24.429451 Density  = 1.050556 
Volume   = 14579.449329 
---------------- Step   570000 ----- CPU =    341.4830 (sec) ----------------
Time     = 2850000.000000 Temp     = 210.687259 Press    = 274.646455 
PotEng   = -8.729195 KinEng   = 0.626792 Lx       = 24.610535 
Ly       = 24.610535 Lz       = 24.610535 Density  = 1.027537 
Volume   = 14906.071174 
---------------- Step   580000 ----- CPU =    347.5262 (sec) ----------------
Time     = 2900000.000000 Temp     = 239.590668 Press    = 10.928073 
PotEng   = -8.783087 KinEng   = 0.712779 Lx       = 24.590565 
Ly       = 24.590565 Lz       = 24.590565 Density  = 1.030042 
Volume   = 14869.813821 
---------------- Step   590000 ----- CPU =    353.6134 (sec) ----------------
Time     = 2950000.000000 Temp     = 244.189289 Press    = 690.721731 
PotEng   = -8.735712 KinEng   = 0.726460 Lx       = 24.451824 
Ly       = 24.451824 Lz       = 24.451824 Density  = 1.047675 
Volume   = 14619.542781 
---------------- Step   600000 ----- CPU =    359.6186 (sec) ----------------
Time     = 3000000.000000 Temp     = 241.325099 Press    = 1745.306352 
PotEng   = -8.819814 KinEng   = 0.717939 Lx       = 24.511175 
Ly       = 24.511175 Lz       = 24.511175 Density  = 1.040083 
Volume   = 14726.257655 
---------------- Step   610000 ----- CPU =    365.3919 (sec) ----------------
Time     = 3050000.000000 Temp     = 238.671446 Press    = 1047.737783 
PotEng   = -8.811516 KinEng   = 0.710045 Lx       = 24.450242 
Ly       = 24.450242 Lz       = 24.450242 Density  = 1.047879 
Volume   = 14616.705922 
---------------- Step   620000 ----- CPU =    371.2839 (sec) ----------------
Time     = 3100000.000000 Temp     = 259.927885 Press    = 702.120360 
PotEng   = -8.836749 KinEng   = 0.773282 Lx       = 24.386065 
Ly       = 24.386065 Lz       = 24.386065 Density  = 1.056174 
Volume   = 14501.909929 
---------------- Step   630000 ----- CPU =    377.3801 (sec) ----------------
Time     = 3150000.000000 Temp     = 243.258671 Press    = 626.500783 
PotEng   = -8.782485 KinEng   = 0.723692 Lx       = 24.525733 
Ly       = 24.525733 Lz       = 24.525733 Density  = 1.038232 
Volume   = 14752.512014 
---------------- Step   640000 ----- CPU =    383.5061 (sec) ----------------
Time     = 3200000.000000 Temp     = 225.404451 Press    = 1446.296631 
PotEng   = -8.762375 KinEng   = 0.670576 Lx       = 24.349931 
Ly       = 24.349931 Lz       = 24.349931 Density  = 1.060883 
Volume   = 14437.540472 
---------------- Step   650000 ----- CPU =    389.4360 (sec) ----------------
Time     = 3250000.000000 Temp     = 233.655096 Press    = 1166.194038 
PotEng   = -8.842910 KinEng   = 0.695121 Lx       = 24.456908 
Ly       = 24.456908 Lz       = 24.456908 Density  = 1.047022 
Volume   = 14628.664193 
---------------- Step   660000 ----- CPU =    395.5576 (sec) ----------------
Time     = 3300000.000000 Temp     = 242.959907 Press    = 814.082066 
PotEng   = -8.815085 KinEng   = 0.722803 Lx       = 24.596720 
Ly       = 24.596720 Lz       = 24.596720 Density  = 1.029269 
Volume   = 14880.982396 
---------------- Step   670000 ----- CPU =    401.3229 (sec) ----------------
Time     = 3350000.000000 Temp     = 225.718044 Press    = 440.250746 
PotEng   = -8.777278 KinEng   = 0.671509 Lx       = 24.394452 
Ly       = 24.394452 Lz       = 24.394452 Density  = 1.055085 
Volume   = 14516.876593 
---------------- Step   680000 ----- CPU =    407.3393 (sec) ----------------
Time     = 3400000.000000 Temp     = 241.871575 Press    = 1195.256762 
PotEng   = -8.782965 KinEng   = 0.719565 Lx       = 24.409260 
Ly       = 24.409260 Lz       = 24.409260 Density  = 1.053166 
Volume   = 14543.329016 
---------------- Step   690000 ----- CPU =    413.4127 (sec) ----------------
Time     = 3450000.000000 Temp     = 225.152666 Press    = 393.230588 
PotEng   = -8.786219 KinEng   = 0.669827 Lx       = 24.424933 
Ly       = 24.424933 Lz       = 24.424933 Density  = 1.051140 
Volume   = 14571.360961 
---------------- Step   700000 ----- CPU =    419.5029 (sec) ----------------
Time     = 3500000.000000 Temp     = 239.796004 Press    = 426.929798 
PotEng   = -8.736621 KinEng   = 0.713390 Lx       = 24.480211 
Ly       = 24.480211 Lz       = 24.480211 Density  = 1.044035 
Volume   = 14670.518870 
---------------- Step   710000 ----- CPU =    425.6108 (sec) ----------------
Time     = 3550000.000000 Temp     = 235.163778 Press    = 392.562560 
PotEng   = -8.737671 KinEng   = 0.699609 Lx       = 24.400014 
Ly       = 24.400014 Lz       = 24.400014 Density  = 1.054363 
Volume   = 14526.808171 
---------------- Step   720000 ----- CPU =    431.5947 (sec) ----------------
Time     = 3600000.000000 Temp     = 229.899982 Press    = 353.712480 
PotEng   = -8.760378 KinEng   = 0.683950 Lx       = 24.379871 
Ly       = 24.379871 Lz       = 24.379871 Density  = 1.056979 
Volume   = 14490.860938 
---------------- Step   730000 ----- CPU =    437.6770 (sec) ----------------
Time     = 3650000.000000 Temp     = 243.107317 Press    = 777.318691 
PotEng   = -8.859442 KinEng   = 0.723241 Lx       = 24.574830 
Ly       = 24.574830 Lz       = 24.574830 Density  = 1.032022 
Volume   = 14841.287048 
---------------- Step   740000 ----- CPU =    443.7795 (sec) ----------------
Time     = 3700000.000000 Temp     = 233.274038 Press    = 964.102808 
PotEng   = -8.755517 KinEng   = 0.693988 Lx       = 24.435189 
Ly       = 24.435189 Lz       = 24.435189 Density  = 1.049817 
Volume   = 14589.724565 
---------------- Step   750000 ----- CPU =    449.7774 (sec) ----------------
Time     = 3750000.000000 Temp     = 233.679540 Press    = 1207.411189 
PotEng   = -8.833885 KinEng   = 0.695194 Lx       = 24.562821 
Ly       = 24.562821 Lz       = 24.562821 Density  = 1.033536 
Volume   = 14819.541031 
---------------- Step   760000 ----- CPU =    455.8233 (sec) ----------------
Time     = 3800000.000000 Temp     = 250.728693 Press    = 289.063641 
PotEng   = -8.774652 KinEng   = 0.745915 Lx       = 24.303991 
Ly       = 24.303991 Lz       = 24.303991 Density  = 1.066910 
Volume   = 14355.978634 
---------------- Step   770000 ----- CPU =    461.8402 (sec) ----------------
Time     = 3850000.000000 Temp     = 251.574743 Press    = 533.080931 
PotEng   = -8.781774 KinEng   = 0.748432 Lx       = 24.592015 
Ly       = 24.592015 Lz       = 24.592015 Density  = 1.029860 
Volume   = 14872.444979 
---------------- Step   780000 ----- CPU =    467.9235 (sec) ----------------
Time     = 3900000.000000 Temp     = 257.471554 Press    = 136.597591 
PotEng   = -8.766430 KinEng   = 0.765975 Lx       = 24.434760 
Ly       = 24.434760 Lz       = 24.434760 Density  = 1.049872 
Volume   = 14588.956071 
---------------- Step   790000 ----- CPU =    474.0371 (sec) ----------------
Time     = 3950000.000000 Temp     = 241.435333 Press    = 2327.151680 
PotEng   = -8.753483 KinEng   = 0.718267 Lx       = 24.381212 
Ly       = 24.381212 Lz       = 24.381212 Density  = 1.056804 
Volume   = 14493.253199 
---------------- Step   800000 ----- CPU =    479.9624 (sec) ----------------
Time     = 4000000.000000 Temp     = 240.924819 Press    = -142.973535 
PotEng   = -8.858954 KinEng   = 0.716748 Lx       = 24.497468 
Ly       = 24.497468 Lz       = 24.497468 Density  = 1.041830 
Volume   = 14701.566823 
---------------- Step   810000 ----- CPU =    485.8817 (sec) ----------------
Time     = 4050000.000000 Temp     = 244.793247 Press    = 342.529609 
PotEng   = -8.718255 KinEng   = 0.728257 Lx       = 24.454621 
Ly       = 24.454621 Lz       = 24.454621 Density  = 1.047316 
Volume   = 14624.559543 
---------------- Step   820000 ----- CPU =    492.0475 (sec) ----------------
Time     = 4100000.000000 Temp     = 239.830868 Press    = -200.030522 
PotEng   = -8.808519 KinEng   = 0.713494 Lx       = 24.694825 
Ly       = 24.694825 Lz       = 24.694825 Density  = 1.017051 
Volume   = 15059.753321 
---------------- Step   830000 ----- CPU =    497.9712 (sec) ----------------
Time     = 4150000.000000 Temp     = 236.047821 Press    = 1930.268050 
PotEng   = -8.808739 KinEng   = 0.702239 Lx       = 24.499737 
Ly       = 24.499737 Lz       = 24.499737 Density  = 1.041541 
Volume   = 14705.651322 
---------------- Step   840000 ----- CPU =    504.1167 (sec) ----------------
Time     = 4200000.000000 Temp     = 235.831184 Press    = 752.037354 
PotEng   = -8.845879 KinEng   = 0.701595 Lx       = 24.397416 
Ly       = 24.397416 Lz       = 24.397416 Density  = 1.054700 
Volume   = 14522.169250 
---------------- Step   850000 ----- CPU =    510.1203 (sec) ----------------
Time     = 4250000.000000 Temp     = 233.413118 Press    = 1645.540323 
PotEng   = -8.809608 KinEng   = 0.694401 Lx       = 24.408940 
Ly       = 24.408940 Lz       = 24.408940 Density  = 1.053207 
Volume   = 14542.756840 
---------------- Step   860000 ----- CPU =    515.9641 (sec) ----------------
Time     = 4300000.000000 Temp     = 258.093224 Press    = 1139.586455 
PotEng   = -8.844795 KinEng   = 0.767824 Lx       = 24.540738 
Ly       = 24.540738 Lz       = 24.540738 Density  = 1.036329 
Volume   = 14779.605964 
---------------- Step   870000 ----- CPU =    521.9777 (sec) ----------------
Time     = 4350000.000000 Temp     = 240.541966 Press    = 228.887444 
PotEng   = -8.764866 KinEng   = 0.715610 Lx       = 24.461102 
Ly       = 24.461102 Lz       = 24.461102 Density  = 1.046484 
Volume   = 14636.189768 
---------------- Step   880000 ----- CPU =    528.0704 (sec) ----------------
Time     = 4400000.000000 Temp     = 229.672201 Press    = 1149.807075 
PotEng   = -8.790627 KinEng   = 0.683272 Lx       = 24.396264 
Ly       = 24.396264 Lz       = 24.396264 Density  = 1.054850 
Volume   = 14520.113106 
---------------- Step   890000 ----- CPU =    534.2551 (sec) ----------------
Time     = 4450000.000000 Temp     = 224.559809 Press    = 1239.885535 
PotEng   = -8.722791 KinEng   = 0.668063 Lx       = 24.318738 
Ly       = 24.318738 Lz       = 24.318738 Density  = 1.064970 
Volume   = 14382.126853 
---------------- Step   900000 ----- CPU =    540.3120 (sec) ----------------
Time     = 4500000.000000 Temp     = 242.196196 Press    = 1141.148676 
PotEng   = -8.750976 KinEng   = 0.720531 Lx       = 24.432789 
Ly       = 24.432789 Lz       = 24.432789 Density  = 1.050126 
Volume   = 14585.427027 
---------------- Step   910000 ----- CPU =    546.0765 (sec) ----------------
Time     = 4550000.000000 Temp     = 238.310483 Press    = 1566.802923 
PotEng   = -8.777914 KinEng   = 0.708971 Lx       = 24.555594 
Ly       = 24.555594 Lz       = 24.555594 Density  = 1.034449 
Volume   = 14806.462858 
---------------- Step   920000 ----- CPU =    551.9613 (sec) ----------------
Time     = 4600000.000000 Temp     = 249.941567 Press    = 1665.866215 
PotEng   = -8.855760 KinEng   = 0.743573 Lx       = 24.426171 
Ly       = 24.426171 Lz       = 24.426171 Density  = 1.050980 
Volume   = 14573.576982 
---------------- Step   930000 ----- CPU =    557.8960 (sec) ----------------
Time     = 4650000.000000 Temp     = 240.913534 Press    = 2762.823825 
PotEng   = -8.810480 KinEng   = 0.716715 Lx       = 24.579522 
Ly       = 24.579522 Lz       = 24.579522 Density  = 1.031431 
Volume   = 14849.789556 
---------------- Step   940000 ----- CPU =    563.7763 (sec) ----------------
Time     = 4700000.000000 Temp     = 232.315821 Press    = 1141.575952 
PotEng   = -8.782836 KinEng   = 0.691137 Lx       = 24.571875 
Ly       = 24.571875 Lz       = 24.571875 Density  = 1.032394 
Volume   = 14835.933361 
---------------- Step   950000 ----- CPU =    569.7404 (sec) ----------------
Time     = 4750000.000000 Temp     = 239.526227 Press    = 2129.769941 
PotEng   = -8.718093 KinEng   = 0.712588 Lx       = 24.393550 
Ly       = 24.393550 Lz       = 24.393550 Density  = 1.055202 
Volume   = 14515.267542 
---------------- Step   960000 ----- CPU =    575.9241 (sec) ----------------
Time     = 4800000.000000 Temp     = 245.971445 Press    = 2180.017418 
PotEng   = -8.819596 KinEng   = 0.731762 Lx       = 24.462971 
Ly       = 24.462971 Lz       = 24.462971 Density  = 1.046244 
Volume   = 14639.545451 
---------------- Step   970000 ----- CPU =    581.8800 (sec) ----------------
Time     = 4850000.000000 Temp     = 237.280746 Press    = 1385.161422 
PotEng   = -8.778402 KinEng   = 0.705907 Lx       = 24.478555 
Ly       = 24.478555 Lz       = 24.478555 Density  = 1.044247 
Volume   = 14667.541119 
---------------- Step   980000 ----- CPU =    587.9934 (sec) ----------------
Time     = 4900000.000000 Temp     = 241.210183 Press    = 589.796291 
PotEng   = -8.818226 KinEng   = 0.717597 Lx       = 24.483752 
Ly       = 24.483752 Lz       = 24.483752 Density  = 1.043582 
Volume   = 14676.884924 
---------------- Step   990000 ----- CPU =    593.9206 (sec) ----------------
Time     = 4950000.000000 Temp     = 255.779503 Press    = 627.187524 
PotEng   = -8.801505 KinEng   = 0.760941 Lx       = 24.364178 
Ly       = 24.364178 Lz       = 24.364178 Density  = 1.059023 
Volume   = 14462.896777 
---------------- Step  1000000 ----- CPU =    599.9717 (sec) ----------------
Time     = 5000000.000000 Temp     = 232.687973 Press    = 566.599638 
PotEng   = -8.734358 KinEng   = 0.692244 Lx       = 24.335587 
Ly       = 24.335587 Lz       = 24.335587 Density  = 1.062760 
Volume   = 14412.040228 
---------------- Step  1010000 ----- CPU =    606.1636 (sec) ----------------
Time     = 5050000.000000 Temp     = 241.060481 Press    = 520.897142 
PotEng   = -8.760287 KinEng   = 0.717152 Lx       = 24.348029 
Ly       = 24.348029 Lz       = 24.348029 Density  = 1.061131 
Volume   = 14434.156652 
---------------- Step  1020000 ----- CPU =    612.1448 (sec) ----------------
Time     = 5100000.000000 Temp     = 247.162640 Press    = 701.370559 
PotEng   = -8.773030 KinEng   = 0.735306 Lx       = 24.562698 
Ly       = 24.562698 Lz       = 24.562698 Density  = 1.033552 
Volume   = 14819.318028 
---------------- Step  1030000 ----- CPU =    617.9968 (sec) ----------------
Time     = 5150000.000000 Temp     = 248.754175 Press    = 1777.124176 
PotEng   = -8.776732 KinEng   = 0.740041 Lx       = 24.419098 
Ly       = 24.419098 Lz       = 24.419098 Density  = 1.051893 
Volume   = 14560.921282 
---------------- Step  1040000 ----- CPU =    623.9883 (sec) ----------------
Time     = 5200000.000000 Temp     = 242.035416 Press    = 1099.537348 
PotEng   = -8.782449 KinEng   = 0.720052 Lx       = 24.619923 
Ly       = 24.619923 Lz       = 24.619923 Density  = 1.026362 
Volume   = 14923.135180 
---------------- Step  1050000 ----- CPU =    629.9304 (sec) ----------------
Time     = 5250000.000000 Temp     = 236.040859 Press    = 892.082600 
PotEng   = -8.787450 KinEng   = 0.702219 Lx       = 24.496609 
Ly       = 24.496609 Lz       = 24.496609 Density  = 1.041940 
Volume   = 14700.019382 
---------------- Step  1060000 ----- CPU =    635.9586 (sec) ----------------
Time     = 5300000.000000 Temp     = 231.444519 Press    = 1959.379156 
PotEng   = -8.726570 KinEng   = 0.688545 Lx       = 24.361063 
Ly       = 24.361063 Lz       = 24.361063 Density  = 1.059429 
Volume   = 14457.350970 
---------------- Step  1070000 ----- CPU =    642.0530 (sec) ----------------
Time     = 5350000.000000 Temp     = 227.586090 Press    = 557.221123 
PotEng   = -8.849403 KinEng   = 0.677066 Lx       = 24.385213 
Ly       = 24.385213 Lz       = 24.385213 Density  = 1.056284 
Volume   = 14500.389888 
---------------- Step  1080000 ----- CPU =    648.0862 (sec) ----------------
Time     = 5400000.000000 Temp     = 230.771869 Press    = 1496.154391 
PotEng   = -8.775373 KinEng   = 0.686544 Lx       = 24.427327 
Ly       = 24.427327 Lz       = 24.427327 Density  = 1.050831 
Volume   = 14575.646708 
---------------- Step  1090000 ----- CPU =    654.1330 (sec) ----------------
Time     = 5450000.000000 Temp     = 239.948869 Press    = 1025.757797 
PotEng   = -8.808259 KinEng   = 0.713845 Lx       = 24.422107 
Ly       = 24.422107 Lz       = 24.422107 Density  = 1.051505 
Volume   = 14566.304230 
---------------- Step  1100000 ----- CPU =    660.1910 (sec) ----------------
Time     = 5500000.000000 Temp     = 231.772440 Press    = 901.162077 
PotEng   = -8.740747 KinEng   = 0.689520 Lx       = 24.533896 
Ly       = 24.533896 Lz       = 24.533896 Density  = 1.037196 
Volume   = 14767.247366 
---------------- Step  1110000 ----- CPU =    666.1308 (sec) ----------------
Time     = 5550000.000000 Temp     = 247.425311 Press    = 258.190096 
PotEng   = -8.844502 KinEng   = 0.736087 Lx       = 24.501244 
Ly       = 24.501244 Lz       = 24.501244 Density  = 1.041349 
Volume   = 14708.364483 
---------------- Step  1120000 ----- CPU =    672.1839 (sec) ----------------
Time     = 5600000.000000 Temp     = 242.899370 Press    = 71.711537 
PotEng   = -8.768772 KinEng   = 0.722623 Lx       = 24.519070 
Ly       = 24.519070 Lz       = 24.519070 Density  = 1.039079 
Volume   = 14740.491902 
---------------- Step  1130000 ----- CPU =    677.9493 (sec) ----------------
Time     = 5650000.000000 Temp     = 248.285704 Press    = 1596.482434 
PotEng   = -8.810119 KinEng   = 0.738647 Lx       = 24.572077 
Ly       = 24.572077 Lz       = 24.572077 Density  = 1.032369 
Volume   = 14836.300262 
---------------- Step  1140000 ----- CPU =    683.8585 (sec) ----------------
Time     = 5700000.000000 Temp     = 232.528301 Press    = 2832.852838 
PotEng   = -8.816052 KinEng   = 0.691769 Lx       = 24.378060 
Ly       = 24.378060 Lz       = 24.378060 Density  = 1.057215 
Volume   = 14487.631831 
---------------- Step  1150000 ----- CPU =    689.8363 (sec) ----------------
Time     = 5750000.000000 Temp     = 237.746836 Press    = 796.357985 
PotEng   = -8.812670 KinEng   = 0.707294 Lx       = 24.430136 
Ly       = 24.430136 Lz       = 24.430136 Density  = 1.050468 
Volume   = 14580.675469 
---------------- Step  1160000 ----- CPU =    695.8696 (sec) ----------------
Time     = 5800000.000000 Temp     = 235.689628 Press    = 1326.303503 
PotEng   = -8.811914 KinEng   = 0.701174 Lx       = 24.367653 
Ly       = 24.367653 Lz       = 24.367653 Density  = 1.058570 
Volume   = 14469.085550 
---------------- Step  1170000 ----- CPU =    701.9545 (sec) ----------------
Time     = 5850000.000000 Temp     = 237.128122 Press    = 551.272074 
PotEng   = -8.807560 KinEng   = 0.705453 Lx       = 24.611820 
Ly       = 24.611820 Lz       = 24.611820 Density  = 1.027376 
Volume   = 14908.405068 
---------------- Step  1180000 ----- CPU =    707.9161 (sec) ----------------
Time     = 5900000.000000 Temp     = 236.433002 Press    = 4.063555 
PotEng   = -8.828602 KinEng   = 0.703385 Lx       = 24.525098 
Ly       = 24.525098 Lz       = 24.525098 Density  = 1.038313 
Volume   = 14751.367350 
---------------- Step  1190000 ----- CPU =    713.9023 (sec) ----------------
Time     = 5950000.000000 Temp     = 241.204243 Press    = 1036.387746 
PotEng   = -8.752704 KinEng   = 0.717580 Lx       = 24.380674 
Ly       = 24.380674 Lz       = 24.380674 Density  = 1.056874 
Volume   = 14492.292935 
---------------- Step  1200000 ----- CPU =    720.0687 (sec) ----------------
Time     = 6000000.000000 Temp     = 242.773805 Press    = 1702.810274 
PotEng   = -8.783438 KinEng   = 0.722249 Lx       = 24.280662 
Ly       = 24.280662 Lz       = 24.280662 Density  = 1.069988 
Volume   = 14314.677740 
---------------- Step  1210000 ----- CPU =    725.9996 (sec) ----------------
Time     = 6050000.000000 Temp     = 229.387481 Press    = 790.698514 
PotEng   = -8.809197 KinEng   = 0.682425 Lx       = 24.524253 
Ly       = 24.524253 Lz       = 24.524253 Density  = 1.038420 
Volume   = 14749.841929 
---------------- Step  1220000 ----- CPU =    732.2269 (sec) ----------------
Time     = 6100000.000000 Temp     = 240.427926 Press    = 444.759040 
PotEng   = -8.811239 KinEng   = 0.715270 Lx       = 24.391219 
Ly       = 24.391219 Lz       = 24.391219 Density  = 1.055504 
Volume   = 14511.106664 
---------------- Step  1230000 ----- CPU =    738.3133 (sec) ----------------
Time     = 6150000.000000 Temp     = 249.943486 Press    = 1652.422183 
PotEng   = -8.767610 KinEng   = 0.743579 Lx       = 24.485537 
Ly       = 24.485537 Lz       = 24.485537 Density  = 1.043354 
Volume   = 14680.095370 
---------------- Step  1240000 ----- CPU =    744.2736 (sec) ----------------
Time     = 6200000.000000 Temp     = 251.760139 Press    = 2.300967 
PotEng   = -8.738661 KinEng   = 0.748983 Lx       = 24.459657 
Ly       = 24.459657 Lz       = 24.459657 Density  = 1.046669 
Volume   = 14633.596917 
---------------- Step  1250000 ----- CPU =    750.2733 (sec) ----------------
Time     = 6250000.000000 Temp     = 241.450995 Press    = 69.806958 
PotEng   = -8.803180 KinEng   = 0.718314 Lx       = 24.613492 
Ly       = 24.613492 Lz       = 24.613492 Density  = 1.027166 
Volume   = 14911.444493 
---------------- Step  1260000 ----- CPU =    756.2221 (sec) ----------------
Time     = 6300000.000000 Temp     = 251.729522 Press    = 1075.387428 
PotEng   = -8.786485 KinEng   = 0.748892 Lx       = 24.565758 
Ly       = 24.565758 Lz       = 24.565758 Density  = 1.033166 
Volume   = 14824.856057 
---------------- Step  1270000 ----- CPU =    762.2168 (sec) ----------------
Time     = 6350000.000000 Temp     = 234.314569 Press    = 731.743621 
PotEng   = -8.798180 KinEng   = 0.697083 Lx       = 24.515446 
Ly       = 24.515446 Lz       = 24.515446 Density  = 1.039540 
Volume   = 14733.957801 
---------------- Step  1280000 ----- CPU =    768.4062 (sec) ----------------
Time     = 6400000.000000 Temp     = 244.896565 Press    = 728.287552 
PotEng   = -8.752395 KinEng   = 0.728564 Lx       = 24.351337 
Ly       = 24.351337 Lz       = 24.351337 Density  = 1.060699 
Volume   = 14440.040561 
---------------- Step  1290000 ----- CPU =    774.3574 (sec) ----------------
Time     = 6450000.000000 Temp     = 233.899751 Press    = 1436.051690 
PotEng   = -8.709767 KinEng   = 0.695849 Lx       = 24.303271 
Ly       = 24.303271 Lz       = 24.303271 Density  = 1.067005 
Volume   = 14354.702149 
---------------- Step  1300000 ----- CPU =    780.4776 (sec) ----------------
Time     = 6500000.000000 Temp     = 241.703121 Press    = 652.449001 
PotEng   = -8.691756 KinEng   = 0.719064 Lx       = 24.436350 
Ly       = 24.436350 Lz       = 24.436350 Density  = 1.049667 
Volume   = 14591.804316 
---------------- Step  1310000 ----- CPU =    786.7240 (sec) ----------------
Time     = 6550000.000000 Temp     = 246.163252 Press    = 19.733042 
PotEng   = -8.833548 KinEng   = 0.732333 Lx       = 24.586222 
Ly       = 24.586222 Lz       = 24.586222 Density  = 1.030588 
Volume   = 14861.936924 
---------------- Step  1320000 ----- CPU =    792.8251 (sec) ----------------
Time     = 6600000.000000 Temp     = 225.953441 Press    = 346.672428 
PotEng   = -8.735093 KinEng   = 0.672209 Lx       = 24.368064 
Ly       = 24.368064 Lz       = 24.368064 Density  = 1.058516 
Volume   = 14469.819068 
---------------- Step  1330000 ----- CPU =    798.7466 (sec) ----------------
Time     = 6650000.000000 Temp     = 244.406136 Press    = -26.008141 
PotEng   = -8.774168 KinEng   = 0.727105 Lx       = 24.560430 
Ly       = 24.560430 Lz       = 24.560430 Density  = 1.033838 
Volume   = 14815.213413 
---------------- Step  1340000 ----- CPU =    804.7072 (sec) ----------------
Time     = 6700000.000000 Temp     = 236.338514 Press    = 962.613678 
PotEng   = -8.768247 KinEng   = 0.703104 Lx       = 24.490611 
Ly       = 24.490611 Lz       = 24.490611 Density  = 1.042706 
Volume   = 14689.223674 
---------------- Step  1350000 ----- CPU =    810.8126 (sec) ----------------
Time     = 6750000.000000 Temp     = 239.105562 Press    = 1608.038074 
PotEng   = -8.762393 KinEng   = 0.711336 Lx       = 24.249135 
Ly       = 24.249135 Lz       = 24.249135 Density  = 1.074167 
Volume   = 14258.988923 
---------------- Step  1360000 ----- CPU =    816.8628 (sec) ----------------
Time     = 6800000.000000 Temp     = 237.902989 Press    = 820.405884 
PotEng   = -8.807067 KinEng   = 0.707759 Lx       = 24.448671 
Ly       = 24.448671 Lz       = 24.448671 Density  = 1.048081 
Volume   = 14613.888338 
---------------- Step  1370000 ----- CPU =    822.9633 (sec) ----------------
Time     = 6850000.000000 Temp     = 245.765469 Press    = 2172.247372 
PotEng   = -8.742704 KinEng   = 0.731149 Lx       = 24.448370 
Ly       = 24.448370 Lz       = 24.448370 Density  = 1.048119 
Volume   = 14613.348650 
---------------- Step  1380000 ----- CPU =    828.8141 (sec) ----------------
Time     = 6900000.000000 Temp     = 229.714791 Press    = 705.661375 
PotEng   = -8.859579 KinEng   = 0.683399 Lx       = 24.523436 
Ly       = 24.523436 Lz       = 24.523436 Density  = 1.038524 
Volume   = 14748.366903 
---------------- Step  1390000 ----- CPU =    834.8685 (sec) ----------------
Time     = 6950000.000000 Temp     = 251.486509 Press    = 732.535284 
PotEng   = -8.738086 KinEng   = 0.748169 Lx       = 24.441344 
Ly       = 24.441344 Lz       = 24.441344 Density  = 1.049024 
Volume   = 14600.752714 
---------------- Step  1400000 ----- CPU =    841.0180 (sec) ----------------
Time     = 7000000.000000 Temp     = 234.641666 Press    = 776.255862 
PotEng   = -8.728215 KinEng   = 0.698056 Lx       = 24.396451 
Ly       = 24.396451 Lz       = 24.396451 Density  = 1.054825 
Volume   = 14520.446710 
---------------- Step  1410000 ----- CPU =    846.8676 (sec) ----------------
Time     = 7050000.000000 Temp     = 234.143164 Press    = -146.481939 
PotEng   = -8.801840 KinEng   = 0.696573 Lx       = 24.668388 
Ly       = 24.668388 Lz       = 24.668388 Density  = 1.020324 
Volume   = 15011.438019 
---------------- Step  1420000 ----- CPU =    852.9278 (sec) ----------------
Time     = 7100000.000000 Temp     = 242.627556 Press    = 319.915921 
PotEng   = -8.775287 KinEng   = 0.721814 Lx       = 24.439438 
Ly       = 24.439438 Lz       = 24.439438 Density  = 1.049269 
Volume   = 14597.336529 
---------------- Step  1430000 ----- CPU =    858.9179 (sec) ----------------
Time     = 7150000.000000 Temp     = 240.676669 Press    = 2059.940705 
PotEng   = -8.815799 KinEng   = 0.716010 Lx       = 24.395977 
Ly       = 24.395977 Lz       = 24.395977 Density  = 1.054887 
Volume   = 14519.599251 
---------------- Step  1440000 ----- CPU =    864.9241 (sec) ----------------
Time     = 7200000.000000 Temp     = 249.581091 Press    = 506.001468 
PotEng   = -8.842838 KinEng   = 0.742501 Lx       = 24.602904 
Ly       = 24.602904 Lz       = 24.602904 Density  = 1.028493 
Volume   = 14892.209570 
---------------- Step  1450000 ----- CPU =    871.0663 (sec) ----------------
Time     = 7250000.000000 Temp     = 258.624670 Press    = 1352.477724 
PotEng   = -8.733313 KinEng   = 0.769405 Lx       = 24.383530 
Ly       = 24.383530 Lz       = 24.383530 Density  = 1.056503 
Volume   = 14497.386702 
---------------- Step  1460000 ----- CPU =    877.0497 (sec) ----------------
Time     = 7300000.000000 Temp     = 233.874371 Press    = 727.121212 
PotEng   = -8.794216 KinEng   = 0.695773 Lx       = 24.429676 
Ly       = 24.429676 Lz       = 24.429676 Density  = 1.050527 
Volume   = 14579.853067 
---------------- Step  1470000 ----- CPU =    883.0486 (sec) ----------------
Time     = 7350000.000000 Temp     = 221.876908 Press    = 761.417331 
PotEng   = -8.801784 KinEng   = 0.660081 Lx       = 24.397131 
Ly       = 24.397131 Lz       = 24.397131 Density  = 1.054737 
Volume   = 14521.659481 
---------------- Step  1480000 ----- CPU =    889.1284 (sec) ----------------
Time     = 7400000.000000 Temp     = 236.852941 Press    = 1263.005024 
PotEng   = -8.840127 KinEng   = 0.704635 Lx       = 24.372587 
Ly       = 24.372587 Lz       = 24.372587 Density  = 1.057927 
Volume   = 14477.877196 
---------------- Step  1490000 ----- CPU =    895.2495 (sec) ----------------
Time     = 7450000.000000 Temp     = 228.304053 Press    = 1703.881992 
PotEng   = -8.779372 KinEng   = 0.679202 Lx       = 24.379646 
Ly       = 24.379646 Lz       = 24.379646 Density  = 1.057008 
Volume   = 14490.460663 
---------------- Step  1500000 ----- CPU =    901.2882 (sec) ----------------
Time     = 7500000.000000 Temp     = 230.964180 Press    = 1680.722642 
PotEng   = -8.798629 KinEng   = 0.687116 Lx       = 24.447560 
Ly       = 24.447560 Lz       = 24.447560 Density  = 1.048224 
Volume   = 14611.894804 
---------------- Step  1510000 ----- CPU =    907.3722 (sec) ----------------
Time     = 7550000.000000 Temp     = 231.327206 Press    = 1265.317749 
PotEng   = -8.779882 KinEng   = 0.688196 Lx       = 24.478051 
Ly       = 24.478051 Lz       = 24.478051 Density  = 1.044311 
Volume   = 14666.635204 
---------------- Step  1520000 ----- CPU =    913.5427 (sec) ----------------
Time     = 7600000.000000 Temp     = 256.819112 Press    = 510.174934 
PotEng   = -8.839618 KinEng   = 0.764034 Lx       = 24.492375 
Ly       = 24.492375 Lz       = 24.492375 Density  = 1.042480 
Volume   = 14692.398662 
---------------- Step  1530000 ----- CPU =    919.5089 (sec) ----------------
Time     = 7650000.000000 Temp     = 234.291465 Press    = 301.154483 
PotEng   = -8.787524 KinEng   = 0.697014 Lx       = 24.505416 
Ly       = 24.505416 Lz       = 24.505416 Density  = 1.040817 
Volume   = 14715.879138 
---------------- Step  1540000 ----- CPU =    925.3534 (sec) ----------------
Time     = 7700000.000000 Temp     = 232.107571 Press    = 535.221041 
PotEng   = -8.792294 KinEng   = 0.690517 Lx       = 24.546266 
Ly       = 24.546266 Lz       = 24.546266 Density  = 1.035629 
Volume   = 14789.595925 
---------------- Step  1550000 ----- CPU =    931.3400 (sec) ----------------
Time     = 7750000.000000 Temp     = 235.486170 Press    = 2310.563251 
PotEng   = -8.779986 KinEng   = 0.700569 Lx       = 24.399019 
Ly       = 24.399019 Lz       = 24.399019 Density  = 1.054492 
Volume   = 14525.031967 
---------------- Step  1560000 ----- CPU =    937.4245 (sec) ----------------
Time     = 7800000.000000 Temp     = 258.120980 Press    = 1892.109715 
PotEng   = -8.723991 KinEng   = 0.767907 Lx       = 24.407790 
Ly       = 24.407790 Lz       = 24.407790 Density  = 1.053356 
Volume   = 14540.702371 
---------------- Step  1570000 ----- CPU =    943.4735 (sec) ----------------
Time     = 7850000.000000 Temp     = 232.709367 Press    = 589.870411 
PotEng   = -8.773075 KinEng   = 0.692308 Lx       = 24.388914 
Ly       = 24.388914 Lz       = 24.388914 Density  = 1.055804 
Volume   = 14506.991925 
---------------- Step  1580000 ----- CPU =    949.5735 (sec) ----------------
Time     = 7900000.000000 Temp     = 249.521114 Press    = 1748.160609 
PotEng   = -8.820816 KinEng   = 0.742322 Lx       = 24.652853 
Ly       = 24.652853 Lz       = 24.652853 Density  = 1.022254 
Volume   = 14983.095734 
---------------- Step  1590000 ----- CPU =    955.4458 (sec) ----------------
Time     = 7950000.000000 Temp     = 228.074672 Press    = 1147.409540 
PotEng   = -8.785345 KinEng   = 0.678519 Lx       = 24.531400 
Ly       = 24.531400 Lz       = 24.531400 Density  = 1.037513 
Volume   = 14762.740681 
---------------- Step  1600000 ----- CPU =    961.3851 (sec) ----------------
Time     = 8000000.000000 Temp     = 230.019000 Press    = 432.424894 
PotEng   = -8.751864 KinEng   = 0.684304 Lx       = 24.408859 
Ly       = 24.408859 Lz       = 24.408859 Density  = 1.053217 
Volume   = 14542.613223 
---------------- Step  1610000 ----- CPU =    967.4539 (sec) ----------------
Time     = 8050000.000000 Temp     = 233.006614 Press    = 1056.346104 
PotEng   = -8.802063 KinEng   = 0.693192 Lx       = 24.571492 
Ly       = 24.571492 Lz       = 24.571492 Density  = 1.032443 
Volume   = 14835.240627 
---------------- Step  1620000 ----- CPU =    973.3294 (sec) ----------------
Time     = 8100000.000000 Temp     = 248.579307 Press    = 972.406555 
PotEng   = -8.772128 KinEng   = 0.739520 Lx       = 24.399099 
Ly       = 24.399099 Lz       = 24.399099 Density  = 1.054482 
Volume   = 14525.174620 
---------------- Step  1630000 ----- CPU =    979.5454 (sec) ----------------
Time     = 8150000.000000 Temp     = 228.726104 Press    = -12.792851 
PotEng   = -8.784351 KinEng   = 0.680457 Lx       = 24.379232 
Ly       = 24.379232 Lz       = 24.379232 Density  = 1.057062 
Volume   = 14489.722502 
---------------- Step  1640000 ----- CPU =    985.6002 (sec) ----------------
Time     = 8200000.000000 Temp     = 232.075441 Press    = 541.730891 
PotEng   = -8.848268 KinEng   = 0.690422 Lx       = 24.611549 
Ly       = 24.611549 Lz       = 24.611549 Density  = 1.027410 
Volume   = 14907.913227 
---------------- Step  1650000 ----- CPU =    991.5358 (sec) ----------------
Time     = 8250000.000000 Temp     = 237.440746 Press    = 558.797765 
PotEng   = -8.745008 KinEng   = 0.706383 Lx       = 24.403396 
Ly       = 24.403396 Lz       = 24.403396 Density  = 1.053925 
Volume   = 14532.851149 
---------------- Step  1660000 ----- CPU =    997.6453 (sec) ----------------
Time     = 8300000.000000 Temp     = 255.004066 Press    = 1288.850685 
PotEng   = -8.789198 KinEng   = 0.758634 Lx       = 24.467439 
Ly       = 24.467439 Lz       = 24.467439 Density  = 1.045671 
Volume   = 14647.568464 
---------------- Step  1670000 ----- CPU =   1003.5873 (sec) ----------------
Time     = 8350000.000000 Temp     = 233.934784 Press    = 1058.030842 
PotEng   = -8.814051 KinEng   = 0.695953 Lx       = 24.451145 
Ly       = 24.451145 Lz       = 24.451145 Density  = 1.047763 
Volume   = 14618.323808 
---------------- Step  1680000 ----- CPU =   1009.7313 (sec) ----------------
Time     = 8400000.000000 Temp     = 233.783518 Press    = 445.419064 
PotEng   = -8.813756 KinEng   = 0.695503 Lx       = 24.412703 
Ly       = 24.412703 Lz       = 24.412703 Density  = 1.052720 
Volume   = 14549.484171 
---------------- Step  1690000 ----- CPU =   1015.7726 (sec) ----------------
Time     = 8450000.000000 Temp     = 231.932547 Press    = 385.570062 
PotEng   = -8.801532 KinEng   = 0.689997 Lx       = 24.437488 
Ly       = 24.437488 Lz       = 24.437488 Density  = 1.049520 
Volume   = 14593.843117 
---------------- Step  1700000 ----- CPU =   1021.6532 (sec) ----------------
Time     = 8500000.000000 Temp     = 248.211006 Press    = 1222.632512 
PotEng   = -8.850114 KinEng   = 0.738425 Lx       = 24.665515 
Ly       = 24.665515 Lz       = 24.665515 Density  = 1.020681 
Volume   = 15006.194763 
---------------- Step  1710000 ----- CPU =   1027.6913 (sec) ----------------
Time     = 8550000.000000 Temp     = 235.138928 Press    = 1090.062009 
PotEng   = -8.803646 KinEng   = 0.699536 Lx       = 24.389569 
Ly       = 24.389569 Lz       = 24.389569 Density  = 1.055719 
Volume   = 14508.161422 
---------------- Step  1720000 ----- CPU =   1033.7909 (sec) ----------------
Time     = 8600000.000000 Temp     = 247.231072 Press    = 1559.209468 
PotEng   = -8.766959 KinEng   = 0.735510 Lx       = 24.487218 
Ly       = 24.487218 Lz       = 24.487218 Density  = 1.043139 
Volume   = 14683.119998 
---------------- Step  1730000 ----- CPU =   1039.7288 (sec) ----------------
Time     = 8650000.000000 Temp     = 225.485027 Press    = 399.850712 
PotEng   = -8.760718 KinEng   = 0.670815 Lx       = 24.550301 
Ly       = 24.550301 Lz       = 24.550301 Density  = 1.035118 
Volume   = 14796.891524 
---------------- Step  1740000 ----- CPU =   1045.8115 (sec) ----------------
Time     = 8700000.000000 Temp     = 244.699247 Press    = 732.411273 
PotEng   = -8.778027 KinEng   = 0.727977 Lx       = 24.442410 
Ly       = 24.442410 Lz       = 24.442410 Density  = 1.048886 
Volume   = 14602.664099 
---------------- Step  1750000 ----- CPU =   1051.7843 (sec) ----------------
Time     = 8750000.000000 Temp     = 236.082931 Press    = -111.109406 
PotEng   = -8.802944 KinEng   = 0.702344 Lx       = 24.393975 
Ly       = 24.393975 Lz       = 24.393975 Density  = 1.055147 
Volume   = 14516.025271 
---------------- Step  1760000 ----- CPU =   1057.6789 (sec) ----------------
Time     = 8800000.000000 Temp     = 238.431123 Press    = 1144.487786 
PotEng   = -8.790516 KinEng   = 0.709330 Lx       = 24.501430 
Ly       = 24.501430 Lz       = 24.501430 Density  = 1.041325 
Volume   = 14708.700851 
---------------- Step  1770000 ----- CPU =   1063.6383 (sec) ----------------
Time     = 8850000.000000 Temp     = 256.977467 Press    = 105.266190 
PotEng   = -8.765080 KinEng   = 0.764505 Lx       = 24.394667 
Ly       = 24.394667 Lz       = 24.394667 Density  = 1.055057 
Volume   = 14517.261081 
---------------- Step  1780000 ----- CPU =   1069.7308 (sec) ----------------
Time     = 8900000.000000 Temp     = 248.996378 Press    = 1398.601751 
PotEng   = -8.777073 KinEng   = 0.740761 Lx       = 24.351383 
Ly       = 24.351383 Lz       = 24.351383 Density  = 1.060693 
Volume   = 14440.123759 
---------------- Step  1790000 ----- CPU =   1075.7525 (sec) ----------------
Time     = 8950000.000000 Temp     = 230.441833 Press    = 1669.674882 
PotEng   = -8.767918 KinEng   = 0.685562 Lx       = 24.524188 
Ly       = 24.524188 Lz       = 24.524188 Density  = 1.038428 
Volume   = 14749.725398 
---------------- Step  1800000 ----- CPU =   1081.8156 (sec) ----------------
Time     = 9000000.000000 Temp     = 230.909407 Press    = 1447.334613 
PotEng   = -8.834639 KinEng   = 0.686953 Lx       = 24.387770 
Ly       = 24.387770 Lz       = 24.387770 Density  = 1.055952 
Volume   = 14504.951582 
---------------- Step  1810000 ----- CPU =   1087.7404 (sec) ----------------
Time     = 9050000.000000 Temp     = 240.272943 Press    = 857.317887 
PotEng   = -8.807017 KinEng   = 0.714809 Lx       = 24.572927 
Ly       = 24.572927 Lz       = 24.572927 Density  = 1.032262 
Volume   = 14837.839899 
---------------- Step  1820000 ----- CPU =   1093.5987 (sec) ----------------
Time     = 9100000.000000 Temp     = 252.297297 Press    = 748.755679 
PotEng   = -8.760668 KinEng   = 0.750581 Lx       = 24.696057 
Ly       = 24.696057 Lz       = 24.696057 Density  = 1.016899 
Volume   = 15062.006720 
---------------- Step  1830000 ----- CPU =   1099.4866 (sec) ----------------
Time     = 9150000.000000 Temp     = 249.134513 Press    = 792.564047 
PotEng   = -8.780140 KinEng   = 0.741172 Lx       = 24.568104 
Ly       = 24.568104 Lz       = 24.568104 Density  = 1.032870 
Volume   = 14829.105194 
---------------- Step  1840000 ----- CPU =   1105.3892 (sec) ----------------
Time     = 9200000.000000 Temp     = 246.190067 Press    = 964.205180 
PotEng   = -8.814091 KinEng   = 0.732413 Lx       = 24.427170 
Ly       = 24.427170 Lz       = 24.427170 Density  = 1.050851 
Volume   = 14575.365088 
---------------- Step  1850000 ----- CPU =   1111.4677 (sec) ----------------
Time     = 9250000.000000 Temp     = 239.075626 Press    = 1507.264413 
PotEng   = -8.771808 KinEng   = 0.711247 Lx       = 24.402909 
Ly       = 24.402909 Lz       = 24.402909 Density  = 1.053988 
Volume   = 14531.980863 
---------------- Step  1860000 ----- CPU =   1117.5823 (sec) ----------------
Time     = 9300000.000000 Temp     = 225.957759 Press    = 457.436403 
PotEng   = -8.760852 KinEng   = 0.672222 Lx       = 24.520126 
Ly       = 24.520126 Lz       = 24.520126 Density  = 1.038945 
Volume   = 14742.397511 
---------------- Step  1870000 ----- CPU =   1123.6364 (sec) ----------------
Time     = 9350000.000000 Temp     = 250.697771 Press    = 1022.987095 
PotEng   = -8.849798 KinEng   = 0.745823 Lx       = 24.465261 
Ly       = 24.465261 Lz       = 24.465261 Density  = 1.045950 
Volume   = 14643.657363 
---------------- Step  1880000 ----- CPU =   1129.6071 (sec) ----------------
Time     = 9400000.000000 Temp     = 232.702943 Press    = 522.323187 
PotEng   = -8.813077 KinEng   = 0.692288 Lx       = 24.516698 
Ly       = 24.516698 Lz       = 24.516698 Density  = 1.039381 
Volume   = 14736.213697 
---------------- Step  1890000 ----- CPU =   1135.6404 (sec) ----------------
Time     = 9450000.000000 Temp     = 250.575313 Press    = 971.667319 
PotEng   = -8.820080 KinEng   = 0.745459 Lx       = 24.604775 
Ly       = 24.604775 Lz       = 24.604775 Density  = 1.028259 
Volume   = 14895.606277 
---------------- Step  1900000 ----- CPU =   1141.7368 (sec) ----------------
Time     = 9500000.000000 Temp     = 223.474475 Press    = 1594.532913 
PotEng   = -8.814141 KinEng   = 0.664834 Lx       = 24.370316 
Ly       = 24.370316 Lz       = 24.370316 Density  = 1.058223 
Volume   = 14473.830462 
---------------- Step  1910000 ----- CPU =   1147.7120 (sec) ----------------
Time     = 9550000.000000 Temp     = 237.261659 Press    = 1349.061442 
PotEng   = -8.817393 KinEng   = 0.705851 Lx       = 24.432329 
Ly       = 24.432329 Lz       = 24.432329 Density  = 1.050185 
Volume   = 14584.602408 
---------------- Step  1920000 ----- CPU =   1153.7436 (sec) ----------------
Time     = 9600000.000000 Temp     = 245.097537 Press    = 1324.020404 
PotEng   = -8.729549 KinEng   = 0.729162 Lx       = 24.207983 
Ly       = 24.207983 Lz       = 24.207983 Density  = 1.079654 
Volume   = 14186.518510 
---------------- Step  1930000 ----- CPU =   1159.7606 (sec) ----------------
Time     = 9650000.000000 Temp     = 240.706289 Press    = 968.879360 
PotEng   = -8.812758 KinEng   = 0.716098 Lx       = 24.480645 
Ly       = 24.480645 Lz       = 24.480645 Density  = 1.043979 
Volume   = 14671.299049 
---------------- Step  1940000 ----- CPU =   1165.6649 (sec) ----------------
Time     = 9700000.000000 Temp     = 238.819158 Press    = 1264.483638 
PotEng   = -8.841184 KinEng   = 0.710484 Lx       = 24.537025 
Ly       = 24.537025 Lz       = 24.537025 Density  = 1.036800 
Volume   = 14772.898145 
---------------- Step  1950000 ----- CPU =   1171.6890 (sec) ----------------
Time     = 9750000.000000 Temp     = 239.629045 Press    = 1621.739457 
PotEng   = -8.701930 KinEng   = 0.712894 Lx       = 24.564090 
Ly       = 24.564090 Lz       = 24.564090 Density  = 1.033376 
Volume   = 14821.837139 
---------------- Step  1960000 ----- CPU =   1177.7569 (sec) ----------------
Time     = 9800000.000000 Temp     = 243.683630 Press    = 701.811991 
PotEng   = -8.796205 KinEng   = 0.724956 Lx       = 24.339188 
Ly       = 24.339188 Lz       = 24.339188 Density  = 1.062288 
Volume   = 14418.439794 
---------------- Step  1970000 ----- CPU =   1183.8696 (sec) ----------------
Time     = 9850000.000000 Temp     = 247.079950 Press    = 890.959367 
PotEng   = -8.783624 KinEng   = 0.735060 Lx       = 24.362460 
Ly       = 24.362460 Lz       = 24.362460 Density  = 1.059247 
Volume   = 14459.836907 
---------------- Step  1980000 ----- CPU =   1189.7810 (sec) ----------------
Time     = 9900000.000000 Temp     = 244.478879 Press    = 1935.582304 
PotEng   = -8.749623 KinEng   = 0.727322 Lx       = 24.511445 
Ly       = 24.511445 Lz       = 24.511445 Density  = 1.040049 
Volume   = 14726.744523 
---------------- Step  1990000 ----- CPU =   1195.7191 (sec) ----------------
Time     = 9950000.000000 Temp     = 240.032002 Press    = 2131.432711 
PotEng   = -8.781357 KinEng   = 0.714092 Lx       = 24.465250 
Ly       = 24.465250 Lz       = 24.465250 Density  = 1.045951 
Volume   = 14643.638549 
---------------- Step  2000000 ----- CPU =   1201.7866 (sec) ----------------
Time     = 10000000.000000 Temp     = 253.092939 Press    = 870.612687 
PotEng   = -8.822869 KinEng   = 0.752948 Lx       = 24.408814 
Ly       = 24.408814 Lz       = 24.408814 Density  = 1.053223 
Volume   = 14542.532942 
Loop time of 1201.79 on 6 procs for 2000000 steps with 512 atoms

Performance: 718.929 ns/day, 0.033 hours/ns, 1664.187 timesteps/s
99.7% CPU use with 6 MPI tasks x no OpenMP threads

MPI task timing breakdown:
Section |  min time  |  avg time  |  max time  |%varavg| %total
---------------------------------------------------------------
Pair    | 1010.1     | 1013.1     | 1018.9     |   9.0 | 84.30
Neigh   | 15.818     | 15.834     | 15.87      |   0.4 |  1.32
Comm    | 145.43     | 151.01     | 154.03     |  22.7 | 12.57
Output  | 0.0061484  | 0.013207   | 0.048435   |  13.7 |  0.00
Modify  | 18.003     | 18.251     | 18.35      |   2.8 |  1.52
Other   |            | 3.585      |            |       |  0.30

Nlocal:    85.3333 ave 92 max 83 min
Histogram: 2 1 2 0 0 0 0 0 0 1
Nghost:    474.5 ave 478 max 466 min
Histogram: 1 0 0 0 0 0 0 2 1 2
Neighs:    0 ave 0 max 0 min
Histogram: 6 0 0 0 0 0 0 0 0 0
FullNghs:  2104.33 ave 2257 max 2043 min
Histogram: 1 3 1 0 0 0 0 0 0 1

Total # of neighbors = 12626
Ave neighs/atom = 24.6602
Neighbor list builds = 100626
Dangerous builds = 0
#reset_timestep 0
#unfix 1  # Remove the fix (important!)

# ---- Custom dump ----
# Easier to analyze than LAMMP's log file

variable        engtot equal etotal
variable        utotal equal pe
variable        cellx equal lx
variable        kintemp equal temp
variable        virpress equal press
variable        massdensity equal density
variable 		volume equal vol

fix             thermodata all print 200 "${volume} ${massdensity}" file "Ref.density" screen no


# DCD trajectory (every 0.5 ps)
#dump            1 all dcd 5000 traj.dcd

# ----- Temperature/Pressure Controls -----
fix 1 all npt temp ${T} ${T} 100 iso ${P} ${P} 1000
fix 1 all npt temp 240 ${T} 100 iso ${P} ${P} 1000
fix 1 all npt temp 240 240 100 iso ${P} ${P} 1000
fix 1 all npt temp 240 240 100 iso 986.923 ${P} 1000
fix 1 all npt temp 240 240 100 iso 986.923 986.923 1000

run 2000000  # production 10 ns
Per MPI rank memory allocation (min/avg/max) = 2.941 | 2.941 | 2.942 Mbytes
---------------- Step  2000000 ----- CPU =      0.0000 (sec) ----------------
Time     = 10000000.000000 Temp     = 253.092939 Press    = 870.612687 
PotEng   = -8.822869 KinEng   = 0.752948 Lx       = 24.408814 
Ly       = 24.408814 Lz       = 24.408814 Density  = 1.053223 
Volume   = 14542.532942 
---------------- Step  2010000 ----- CPU =      6.0056 (sec) ----------------
Time     = 10050000.000000 Temp     = 229.230795 Press    = -282.276130 
PotEng   = -8.786464 KinEng   = 0.681959 Lx       = 24.569651 
Ly       = 24.569651 Lz       = 24.569651 Density  = 1.032675 
Volume   = 14831.905165 
---------------- Step  2020000 ----- CPU =     11.9658 (sec) ----------------
Time     = 10100000.000000 Temp     = 246.255522 Press    = 899.425743 
PotEng   = -8.746586 KinEng   = 0.732607 Lx       = 24.483790 
Ly       = 24.483790 Lz       = 24.483790 Density  = 1.043577 
Volume   = 14676.953361 
---------------- Step  2030000 ----- CPU =     17.9764 (sec) ----------------
Time     = 10150000.000000 Temp     = 240.409805 Press    = 2086.958619 
PotEng   = -8.771135 KinEng   = 0.715216 Lx       = 24.316275 
Ly       = 24.316275 Lz       = 24.316275 Density  = 1.065294 
Volume   = 14377.757865 
---------------- Step  2040000 ----- CPU =     24.1100 (sec) ----------------
Time     = 10200000.000000 Temp     = 249.407853 Press    = 1135.366513 
PotEng   = -8.802705 KinEng   = 0.741985 Lx       = 24.445542 
Ly       = 24.445542 Lz       = 24.445542 Density  = 1.048483 
Volume   = 14608.278445 
---------------- Step  2050000 ----- CPU =     30.1169 (sec) ----------------
Time     = 10250000.000000 Temp     = 240.269649 Press    = 937.044359 
PotEng   = -8.746577 KinEng   = 0.714799 Lx       = 24.398592 
Ly       = 24.398592 Lz       = 24.398592 Density  = 1.054548 
Volume   = 14524.269060 
---------------- Step  2060000 ----- CPU =     36.1999 (sec) ----------------
Time     = 10300000.000000 Temp     = 257.749151 Press    = 812.774885 
PotEng   = -8.771684 KinEng   = 0.766801 Lx       = 24.472294 
Ly       = 24.472294 Lz       = 24.472294 Density  = 1.045049 
Volume   = 14656.290236 
---------------- Step  2070000 ----- CPU =     42.0623 (sec) ----------------
Time     = 10350000.000000 Temp     = 240.455331 Press    = 1699.592711 
PotEng   = -8.838167 KinEng   = 0.715352 Lx       = 24.371608 
Ly       = 24.371608 Lz       = 24.371608 Density  = 1.058054 
Volume   = 14476.132193 
---------------- Step  2080000 ----- CPU =     47.9857 (sec) ----------------
Time     = 10400000.000000 Temp     = 233.524629 Press    = 569.322216 
PotEng   = -8.831545 KinEng   = 0.694733 Lx       = 24.589825 
Ly       = 24.589825 Lz       = 24.589825 Density  = 1.030135 
Volume   = 14868.471125 
---------------- Step  2090000 ----- CPU =     53.8597 (sec) ----------------
Time     = 10450000.000000 Temp     = 223.403712 Press    = 1037.262019 
PotEng   = -8.817290 KinEng   = 0.664623 Lx       = 24.445180 
Ly       = 24.445180 Lz       = 24.445180 Density  = 1.048530 
Volume   = 14607.628641 
---------------- Step  2100000 ----- CPU =     59.8082 (sec) ----------------
Time     = 10500000.000000 Temp     = 244.642458 Press    = 418.099099 
PotEng   = -8.710535 KinEng   = 0.727808 Lx       = 24.448725 
Ly       = 24.448725 Lz       = 24.448725 Density  = 1.048074 
Volume   = 14613.984028 
---------------- Step  2110000 ----- CPU =     65.7872 (sec) ----------------
Time     = 10550000.000000 Temp     = 244.706334 Press    = 907.426349 
PotEng   = -8.756371 KinEng   = 0.727998 Lx       = 24.512710 
Ly       = 24.512710 Lz       = 24.512710 Density  = 1.039888 
Volume   = 14729.024785 
---------------- Step  2120000 ----- CPU =     71.9736 (sec) ----------------
Time     = 10600000.000000 Temp     = 238.366607 Press    = 1401.675851 
PotEng   = -8.826606 KinEng   = 0.709138 Lx       = 24.407207 
Ly       = 24.407207 Lz       = 24.407207 Density  = 1.053431 
Volume   = 14539.660010 
---------------- Step  2130000 ----- CPU =     77.9895 (sec) ----------------
Time     = 10650000.000000 Temp     = 241.407303 Press    = 1197.153778 
PotEng   = -8.725808 KinEng   = 0.718184 Lx       = 24.453896 
Ly       = 24.453896 Lz       = 24.453896 Density  = 1.047409 
Volume   = 14623.259306 
---------------- Step  2140000 ----- CPU =     84.1361 (sec) ----------------
Time     = 10700000.000000 Temp     = 233.888088 Press    = 1383.826016 
PotEng   = -8.786562 KinEng   = 0.695814 Lx       = 24.420038 
Ly       = 24.420038 Lz       = 24.420038 Density  = 1.051772 
Volume   = 14562.602533 
---------------- Step  2150000 ----- CPU =     90.2082 (sec) ----------------
Time     = 10750000.000000 Temp     = 238.370568 Press    = 1606.004098 
PotEng   = -8.802236 KinEng   = 0.709150 Lx       = 24.461079 
Ly       = 24.461079 Lz       = 24.461079 Density  = 1.046487 
Volume   = 14636.149114 
---------------- Step  2160000 ----- CPU =     96.3731 (sec) ----------------
Time     = 10800000.000000 Temp     = 238.446834 Press    = 1373.797411 
PotEng   = -8.723986 KinEng   = 0.709377 Lx       = 24.352009 
Ly       = 24.352009 Lz       = 24.352009 Density  = 1.060611 
Volume   = 14441.236123 
---------------- Step  2170000 ----- CPU =    102.3769 (sec) ----------------
Time     = 10850000.000000 Temp     = 229.987443 Press    = 285.603319 
PotEng   = -8.823267 KinEng   = 0.684210 Lx       = 24.329609 
Ly       = 24.329609 Lz       = 24.329609 Density  = 1.063543 
Volume   = 14401.422364 
---------------- Step  2180000 ----- CPU =    108.3355 (sec) ----------------
Time     = 10900000.000000 Temp     = 247.192366 Press    = 1165.525101 
PotEng   = -8.803691 KinEng   = 0.735394 Lx       = 24.501248 
Ly       = 24.501248 Lz       = 24.501248 Density  = 1.041348 
Volume   = 14708.373195 
---------------- Step  2190000 ----- CPU =    114.3463 (sec) ----------------
Time     = 10950000.000000 Temp     = 229.823392 Press    = 1594.319216 
PotEng   = -8.770451 KinEng   = 0.683722 Lx       = 24.457650 
Ly       = 24.457650 Lz       = 24.457650 Density  = 1.046927 
Volume   = 14629.994519 
---------------- Step  2200000 ----- CPU =    120.4152 (sec) ----------------
Time     = 11000000.000000 Temp     = 247.626399 Press    = 366.027571 
PotEng   = -8.821502 KinEng   = 0.736686 Lx       = 24.530004 
Ly       = 24.530004 Lz       = 24.530004 Density  = 1.037690 
Volume   = 14760.221248 
---------------- Step  2210000 ----- CPU =    126.3205 (sec) ----------------
Time     = 11050000.000000 Temp     = 237.043155 Press    = -157.394015 
PotEng   = -8.799555 KinEng   = 0.705201 Lx       = 24.481802 
Ly       = 24.481802 Lz       = 24.481802 Density  = 1.043831 
Volume   = 14673.378870 
---------------- Step  2220000 ----- CPU =    132.2940 (sec) ----------------
Time     = 11100000.000000 Temp     = 238.955069 Press    = 730.565734 
PotEng   = -8.807342 KinEng   = 0.710889 Lx       = 24.533270 
Ly       = 24.533270 Lz       = 24.533270 Density  = 1.037276 
Volume   = 14766.116840 
---------------- Step  2230000 ----- CPU =    138.2670 (sec) ----------------
Time     = 11150000.000000 Temp     = 238.530283 Press    = 280.737409 
PotEng   = -8.740824 KinEng   = 0.709625 Lx       = 24.527622 
Ly       = 24.527622 Lz       = 24.527622 Density  = 1.037992 
Volume   = 14755.922195 
---------------- Step  2240000 ----- CPU =    144.3998 (sec) ----------------
Time     = 11200000.000000 Temp     = 247.554829 Press    = 59.119124 
PotEng   = -8.769753 KinEng   = 0.736473 Lx       = 24.417166 
Ly       = 24.417166 Lz       = 24.417166 Density  = 1.052143 
Volume   = 14557.466024 
---------------- Step  2250000 ----- CPU =    150.5049 (sec) ----------------
Time     = 11250000.000000 Temp     = 245.191899 Press    = 1713.944942 
PotEng   = -8.737793 KinEng   = 0.729443 Lx       = 24.225987 
Ly       = 24.225987 Lz       = 24.225987 Density  = 1.077249 
Volume   = 14218.194158 
---------------- Step  2260000 ----- CPU =    156.5778 (sec) ----------------
Time     = 11300000.000000 Temp     = 237.187642 Press    = 126.667867 
PotEng   = -8.773831 KinEng   = 0.705630 Lx       = 24.396319 
Ly       = 24.396319 Lz       = 24.396319 Density  = 1.054842 
Volume   = 14520.210148 
---------------- Step  2270000 ----- CPU =    162.4787 (sec) ----------------
Time     = 11350000.000000 Temp     = 260.073548 Press    = 2058.325740 
PotEng   = -8.727134 KinEng   = 0.773716 Lx       = 24.320855 
Ly       = 24.320855 Lz       = 24.320855 Density  = 1.064692 
Volume   = 14385.883221 
---------------- Step  2280000 ----- CPU =    168.4897 (sec) ----------------
Time     = 11400000.000000 Temp     = 226.366390 Press    = 960.909323 
PotEng   = -8.818799 KinEng   = 0.673437 Lx       = 24.487737 
Ly       = 24.487737 Lz       = 24.487737 Density  = 1.043073 
Volume   = 14684.053345 
---------------- Step  2290000 ----- CPU =    174.5594 (sec) ----------------
Time     = 11450000.000000 Temp     = 245.261323 Press    = 733.985518 
PotEng   = -8.757575 KinEng   = 0.729650 Lx       = 24.507715 
Ly       = 24.507715 Lz       = 24.507715 Density  = 1.040524 
Volume   = 14720.021993 
---------------- Step  2300000 ----- CPU =    180.6334 (sec) ----------------
Time     = 11500000.000000 Temp     = 244.579412 Press    = 1631.375031 
PotEng   = -8.801092 KinEng   = 0.727621 Lx       = 24.506905 
Ly       = 24.506905 Lz       = 24.506905 Density  = 1.040627 
Volume   = 14718.562284 
---------------- Step  2310000 ----- CPU =    186.7374 (sec) ----------------
Time     = 11550000.000000 Temp     = 229.978528 Press    = 1207.460294 
PotEng   = -8.743857 KinEng   = 0.684183 Lx       = 24.418131 
Ly       = 24.418131 Lz       = 24.418131 Density  = 1.052018 
Volume   = 14559.190846 
---------------- Step  2320000 ----- CPU =    192.7199 (sec) ----------------
Time     = 11600000.000000 Temp     = 237.838190 Press    = 1901.679261 
PotEng   = -8.778969 KinEng   = 0.707566 Lx       = 24.341864 
Ly       = 24.341864 Lz       = 24.341864 Density  = 1.061938 
Volume   = 14423.196099 
---------------- Step  2330000 ----- CPU =    198.8616 (sec) ----------------
Time     = 11650000.000000 Temp     = 245.206605 Press    = -592.186254 
PotEng   = -8.740833 KinEng   = 0.729487 Lx       = 24.347871 
Ly       = 24.347871 Lz       = 24.347871 Density  = 1.061152 
Volume   = 14433.876328 
---------------- Step  2340000 ----- CPU =    204.8890 (sec) ----------------
Time     = 11700000.000000 Temp     = 226.267417 Press    = 769.412075 
PotEng   = -8.859570 KinEng   = 0.673143 Lx       = 24.662590 
Ly       = 24.662590 Lz       = 24.662590 Density  = 1.021044 
Volume   = 15000.856241 
---------------- Step  2350000 ----- CPU =    210.9261 (sec) ----------------
Time     = 11750000.000000 Temp     = 255.609445 Press    = 766.837147 
PotEng   = -8.747473 KinEng   = 0.760435 Lx       = 24.424596 
Ly       = 24.424596 Lz       = 24.424596 Density  = 1.051183 
Volume   = 14570.758595 
---------------- Step  2360000 ----- CPU =    217.0913 (sec) ----------------
Time     = 11800000.000000 Temp     = 224.242983 Press    = 57.277422 
PotEng   = -8.731839 KinEng   = 0.667120 Lx       = 24.440122 
Ly       = 24.440122 Lz       = 24.440122 Density  = 1.049181 
Volume   = 14598.563625 
---------------- Step  2370000 ----- CPU =    223.1898 (sec) ----------------
Time     = 11850000.000000 Temp     = 239.025376 Press    = -143.239388 
PotEng   = -8.781449 KinEng   = 0.711098 Lx       = 24.489909 
Ly       = 24.489909 Lz       = 24.489909 Density  = 1.042795 
Volume   = 14687.961514 
---------------- Step  2380000 ----- CPU =    229.2261 (sec) ----------------
Time     = 11900000.000000 Temp     = 231.487752 Press    = 846.378845 
PotEng   = -8.782237 KinEng   = 0.688673 Lx       = 24.309107 
Ly       = 24.309107 Lz       = 24.309107 Density  = 1.066236 
Volume   = 14365.045337 
---------------- Step  2390000 ----- CPU =    235.0880 (sec) ----------------
Time     = 11950000.000000 Temp     = 231.558292 Press    = 1887.038881 
PotEng   = -8.858646 KinEng   = 0.688883 Lx       = 24.529263 
Ly       = 24.529263 Lz       = 24.529263 Density  = 1.037784 
Volume   = 14758.882498 
---------------- Step  2400000 ----- CPU =    241.0833 (sec) ----------------
Time     = 12000000.000000 Temp     = 244.498489 Press    = 780.211162 
PotEng   = -8.803070 KinEng   = 0.727380 Lx       = 24.638432 
Ly       = 24.638432 Lz       = 24.638432 Density  = 1.024050 
Volume   = 14956.816990 
---------------- Step  2410000 ----- CPU =    247.0995 (sec) ----------------
Time     = 12050000.000000 Temp     = 243.133821 Press    = 1146.833316 
PotEng   = -8.736124 KinEng   = 0.723320 Lx       = 24.446079 
Ly       = 24.446079 Lz       = 24.446079 Density  = 1.048414 
Volume   = 14609.240669 
---------------- Step  2420000 ----- CPU =    252.8677 (sec) ----------------
Time     = 12100000.000000 Temp     = 244.166501 Press    = 1961.480488 
PotEng   = -8.808925 KinEng   = 0.726392 Lx       = 24.413416 
Ly       = 24.413416 Lz       = 24.413416 Density  = 1.052628 
Volume   = 14550.758471 
---------------- Step  2430000 ----- CPU =    258.8170 (sec) ----------------
Time     = 12150000.000000 Temp     = 240.271357 Press    = 474.945349 
PotEng   = -8.767159 KinEng   = 0.714804 Lx       = 24.397720 
Ly       = 24.397720 Lz       = 24.397720 Density  = 1.054661 
Volume   = 14522.712781 
---------------- Step  2440000 ----- CPU =    265.0041 (sec) ----------------
Time     = 12200000.000000 Temp     = 230.118750 Press    = 761.721391 
PotEng   = -8.771488 KinEng   = 0.684601 Lx       = 24.515398 
Ly       = 24.515398 Lz       = 24.515398 Density  = 1.039546 
Volume   = 14733.869608 
---------------- Step  2450000 ----- CPU =    270.9517 (sec) ----------------
Time     = 12250000.000000 Temp     = 237.101655 Press    = 594.417397 
PotEng   = -8.810521 KinEng   = 0.705375 Lx       = 24.466265 
Ly       = 24.466265 Lz       = 24.466265 Density  = 1.045821 
Volume   = 14645.460860 
---------------- Step  2460000 ----- CPU =    276.8615 (sec) ----------------
Time     = 12300000.000000 Temp     = 247.148378 Press    = 2044.161926 
PotEng   = -8.821600 KinEng   = 0.735263 Lx       = 24.258054 
Ly       = 24.258054 Lz       = 24.258054 Density  = 1.072982 
Volume   = 14274.729602 
---------------- Step  2470000 ----- CPU =    282.8860 (sec) ----------------
Time     = 12350000.000000 Temp     = 235.940177 Press    = 1036.930696 
PotEng   = -8.790409 KinEng   = 0.701919 Lx       = 24.510017 
Ly       = 24.510017 Lz       = 24.510017 Density  = 1.040231 
Volume   = 14724.170196 
---------------- Step  2480000 ----- CPU =    288.8090 (sec) ----------------
Time     = 12400000.000000 Temp     = 250.347799 Press    = 1115.390067 
PotEng   = -8.853922 KinEng   = 0.744782 Lx       = 24.649372 
Ly       = 24.649372 Lz       = 24.649372 Density  = 1.022688 
Volume   = 14976.749202 
---------------- Step  2490000 ----- CPU =    294.7887 (sec) ----------------
Time     = 12450000.000000 Temp     = 247.673105 Press    = 423.112170 
PotEng   = -8.814021 KinEng   = 0.736825 Lx       = 24.491846 
Ly       = 24.491846 Lz       = 24.491846 Density  = 1.042548 
Volume   = 14691.446871 
---------------- Step  2500000 ----- CPU =    300.9926 (sec) ----------------
Time     = 12500000.000000 Temp     = 247.456444 Press    = 1297.672369 
PotEng   = -8.789256 KinEng   = 0.736180 Lx       = 24.447721 
Ly       = 24.447721 Lz       = 24.447721 Density  = 1.048203 
Volume   = 14612.184523 
---------------- Step  2510000 ----- CPU =    307.1455 (sec) ----------------
Time     = 12550000.000000 Temp     = 246.218586 Press    = 990.603939 
PotEng   = -8.748276 KinEng   = 0.732497 Lx       = 24.424923 
Ly       = 24.424923 Lz       = 24.424923 Density  = 1.051141 
Volume   = 14571.343282 
---------------- Step  2520000 ----- CPU =    313.1052 (sec) ----------------
Time     = 12600000.000000 Temp     = 221.107583 Press    = 1083.659650 
PotEng   = -8.774663 KinEng   = 0.657792 Lx       = 24.583299 
[...]
PotEng   = -8.779931 KinEng   = 0.737995 Lx       = 24.411412 
Ly       = 24.411412 Lz       = 24.411412 Density  = 1.052887 
Volume   = 14547.176496 
---------------- Step  3390000 ----- CPU =    834.6069 (sec) ----------------
Time     = 16950000.000000 Temp     = 246.496644 Press    = 733.512736 
PotEng   = -8.838445 KinEng   = 0.733325 Lx       = 24.394310 
Ly       = 24.394310 Lz       = 24.394310 Density  = 1.055103 
Volume   = 14516.622842 
---------------- Step  3400000 ----- CPU =    840.5182 (sec) ----------------
Time     = 17000000.000000 Temp     = 236.863388 Press    = 1223.351440 
PotEng   = -8.819407 KinEng   = 0.704666 Lx       = 24.752889 
Ly       = 24.752889 Lz       = 24.752889 Density  = 1.009910 
Volume   = 15166.231735 
---------------- Step  3410000 ----- CPU =    846.3660 (sec) ----------------
Time     = 17050000.000000 Temp     = 231.921874 Press    = 1938.649856 
PotEng   = -8.843634 KinEng   = 0.689965 Lx       = 24.382846 
Ly       = 24.382846 Lz       = 24.382846 Density  = 1.056592 
Volume   = 14496.166227 
---------------- Step  3420000 ----- CPU =    852.4009 (sec) ----------------
Time     = 17100000.000000 Temp     = 237.090989 Press    = 1405.436933 
PotEng   = -8.741230 KinEng   = 0.705343 Lx       = 24.341850 
Ly       = 24.341850 Lz       = 24.341850 Density  = 1.061940 
Volume   = 14423.170296 
---------------- Step  3430000 ----- CPU =    858.5196 (sec) ----------------
Time     = 17150000.000000 Temp     = 240.782423 Press    = 1096.038604 
PotEng   = -8.805665 KinEng   = 0.716325 Lx       = 24.632961 
Ly       = 24.632961 Lz       = 24.632961 Density  = 1.024733 
Volume   = 14946.856490 
---------------- Step  3440000 ----- CPU =    864.5648 (sec) ----------------
Time     = 17200000.000000 Temp     = 243.583392 Press    = 1347.762789 
PotEng   = -8.834352 KinEng   = 0.724658 Lx       = 24.442939 
Ly       = 24.442939 Lz       = 24.442939 Density  = 1.048818 
Volume   = 14603.612021 
---------------- Step  3450000 ----- CPU =    870.5367 (sec) ----------------
Time     = 17250000.000000 Temp     = 236.940230 Press    = 1015.551643 
PotEng   = -8.831808 KinEng   = 0.704894 Lx       = 24.469954 
Ly       = 24.469954 Lz       = 24.469954 Density  = 1.045348 
Volume   = 14652.085668 
---------------- Step  3460000 ----- CPU =    876.5315 (sec) ----------------
Time     = 17300000.000000 Temp     = 238.491816 Press    = 1189.835876 
PotEng   = -8.780755 KinEng   = 0.709510 Lx       = 24.426245 
Ly       = 24.426245 Lz       = 24.426245 Density  = 1.050970 
Volume   = 14573.710988 
---------------- Step  3470000 ----- CPU =    882.4483 (sec) ----------------
Time     = 17350000.000000 Temp     = 236.878728 Press    = 901.539536 
PotEng   = -8.766038 KinEng   = 0.704711 Lx       = 24.474425 
Ly       = 24.474425 Lz       = 24.474425 Density  = 1.044776 
Volume   = 14660.118630 
---------------- Step  3480000 ----- CPU =    888.3764 (sec) ----------------
Time     = 17400000.000000 Temp     = 243.905379 Press    = 645.513044 
PotEng   = -8.760193 KinEng   = 0.725616 Lx       = 24.680305 
Ly       = 24.680305 Lz       = 24.680305 Density  = 1.018847 
Volume   = 15033.204330 
---------------- Step  3490000 ----- CPU =    894.4528 (sec) ----------------
Time     = 17450000.000000 Temp     = 238.085685 Press    = 1074.985556 
PotEng   = -8.681576 KinEng   = 0.708302 Lx       = 24.437232 
Ly       = 24.437232 Lz       = 24.437232 Density  = 1.049553 
Volume   = 14593.385149 
---------------- Step  3500000 ----- CPU =    900.5389 (sec) ----------------
Time     = 17500000.000000 Temp     = 231.204239 Press    = 1074.487504 
PotEng   = -8.776167 KinEng   = 0.687830 Lx       = 24.188705 
Ly       = 24.188705 Lz       = 24.188705 Density  = 1.082238 
Volume   = 14152.653201 
---------------- Step  3510000 ----- CPU =    906.4485 (sec) ----------------
Time     = 17550000.000000 Temp     = 249.546015 Press    = 882.087846 
PotEng   = -8.784573 KinEng   = 0.742396 Lx       = 24.487035 
Ly       = 24.487035 Lz       = 24.487035 Density  = 1.043162 
Volume   = 14682.790271 
---------------- Step  3520000 ----- CPU =    912.4210 (sec) ----------------
Time     = 17600000.000000 Temp     = 234.087079 Press    = 1727.826293 
PotEng   = -8.740989 KinEng   = 0.696406 Lx       = 24.367662 
Ly       = 24.367662 Lz       = 24.367662 Density  = 1.058568 
Volume   = 14469.101446 
---------------- Step  3530000 ----- CPU =    918.5416 (sec) ----------------
Time     = 17650000.000000 Temp     = 238.112459 Press    = 688.697826 
PotEng   = -8.814687 KinEng   = 0.708382 Lx       = 24.433537 
Ly       = 24.433537 Lz       = 24.433537 Density  = 1.050030 
Volume   = 14586.765598 
---------------- Step  3540000 ----- CPU =    924.6246 (sec) ----------------
Time     = 17700000.000000 Temp     = 231.756271 Press    = 1775.075549 
PotEng   = -8.805425 KinEng   = 0.689472 Lx       = 24.365612 
Ly       = 24.365612 Lz       = 24.365612 Density  = 1.058836 
Volume   = 14465.451507 
---------------- Step  3550000 ----- CPU =    930.6722 (sec) ----------------
Time     = 17750000.000000 Temp     = 242.324208 Press    = 1415.314469 
PotEng   = -8.722036 KinEng   = 0.720912 Lx       = 24.545912 
Ly       = 24.545912 Lz       = 24.545912 Density  = 1.035674 
Volume   = 14788.956585 
---------------- Step  3560000 ----- CPU =    936.5884 (sec) ----------------
Time     = 17800000.000000 Temp     = 234.635409 Press    = 971.924003 
PotEng   = -8.836347 KinEng   = 0.698038 Lx       = 24.437096 
Ly       = 24.437096 Lz       = 24.437096 Density  = 1.049571 
Volume   = 14593.141721 
---------------- Step  3570000 ----- CPU =    942.4931 (sec) ----------------
Time     = 17850000.000000 Temp     = 247.011004 Press    = 754.171863 
PotEng   = -8.816364 KinEng   = 0.734855 Lx       = 24.459133 
Ly       = 24.459133 Lz       = 24.459133 Density  = 1.046736 
Volume   = 14632.655590 
---------------- Step  3580000 ----- CPU =    948.2930 (sec) ----------------
Time     = 17900000.000000 Temp     = 255.797914 Press    = 81.177950 
PotEng   = -8.760189 KinEng   = 0.760996 Lx       = 24.417381 
Ly       = 24.417381 Lz       = 24.417381 Density  = 1.052115 
Volume   = 14557.850066 
---------------- Step  3590000 ----- CPU =    954.2710 (sec) ----------------
Time     = 17950000.000000 Temp     = 243.706160 Press    = 211.291609 
PotEng   = -8.792351 KinEng   = 0.725023 Lx       = 24.492515 
Ly       = 24.492515 Lz       = 24.492515 Density  = 1.042462 
Volume   = 14692.650155 
---------------- Step  3600000 ----- CPU =    960.3026 (sec) ----------------
Time     = 18000000.000000 Temp     = 246.824496 Press    = 1144.658496 
PotEng   = -8.828796 KinEng   = 0.734300 Lx       = 24.469822 
Ly       = 24.469822 Lz       = 24.469822 Density  = 1.045365 
Volume   = 14651.849512 
---------------- Step  3610000 ----- CPU =    966.2485 (sec) ----------------
Time     = 18050000.000000 Temp     = 242.432360 Press    = 632.311854 
PotEng   = -8.837514 KinEng   = 0.721233 Lx       = 24.519787 
Ly       = 24.519787 Lz       = 24.519787 Density  = 1.038988 
Volume   = 14741.784534 
---------------- Step  3620000 ----- CPU =    972.1448 (sec) ----------------
Time     = 18100000.000000 Temp     = 221.077424 Press    = 888.669311 
PotEng   = -8.855042 KinEng   = 0.657703 Lx       = 24.510221 
Ly       = 24.510221 Lz       = 24.510221 Density  = 1.040205 
Volume   = 14724.537924 
---------------- Step  3630000 ----- CPU =    977.9297 (sec) ----------------
Time     = 18150000.000000 Temp     = 223.195242 Press    = 1387.780317 
PotEng   = -8.749419 KinEng   = 0.664003 Lx       = 24.301085 
Ly       = 24.301085 Lz       = 24.301085 Density  = 1.067293 
Volume   = 14350.829747 
---------------- Step  3640000 ----- CPU =    983.9997 (sec) ----------------
Time     = 18200000.000000 Temp     = 239.713003 Press    = 1062.138631 
PotEng   = -8.759371 KinEng   = 0.713143 Lx       = 24.492867 
Ly       = 24.492867 Lz       = 24.492867 Density  = 1.042417 
Volume   = 14693.283194 
---------------- Step  3650000 ----- CPU =    989.9995 (sec) ----------------
Time     = 18250000.000000 Temp     = 233.124561 Press    = 574.986115 
PotEng   = -8.796208 KinEng   = 0.693543 Lx       = 24.478515 
Ly       = 24.478515 Lz       = 24.478515 Density  = 1.044252 
Volume   = 14667.468977 
---------------- Step  3660000 ----- CPU =    996.0039 (sec) ----------------
Time     = 18300000.000000 Temp     = 229.784811 Press    = 1555.781964 
PotEng   = -8.798733 KinEng   = 0.683607 Lx       = 24.471897 
Ly       = 24.471897 Lz       = 24.471897 Density  = 1.045099 
Volume   = 14655.576599 
---------------- Step  3670000 ----- CPU =   1001.8279 (sec) ----------------
Time     = 18350000.000000 Temp     = 236.761686 Press    = 2534.355138 
PotEng   = -8.809780 KinEng   = 0.704363 Lx       = 24.451054 
Ly       = 24.451054 Lz       = 24.451054 Density  = 1.047774 
Volume   = 14618.160778 
---------------- Step  3680000 ----- CPU =   1007.5437 (sec) ----------------
Time     = 18400000.000000 Temp     = 240.762100 Press    = 1110.858254 
PotEng   = -8.787461 KinEng   = 0.716264 Lx       = 24.575788 
Ly       = 24.575788 Lz       = 24.575788 Density  = 1.031901 
Volume   = 14843.023591 
---------------- Step  3690000 ----- CPU =   1013.4986 (sec) ----------------
Time     = 18450000.000000 Temp     = 242.063426 Press    = 954.759965 
PotEng   = -8.823254 KinEng   = 0.720136 Lx       = 24.500808 
Ly       = 24.500808 Lz       = 24.500808 Density  = 1.041404 
Volume   = 14707.579811 
---------------- Step  3700000 ----- CPU =   1019.3851 (sec) ----------------
Time     = 18500000.000000 Temp     = 245.112146 Press    = 1182.782544 
PotEng   = -8.808969 KinEng   = 0.729206 Lx       = 24.583502 
Ly       = 24.583502 Lz       = 24.583502 Density  = 1.030930 
Volume   = 14857.003529 
---------------- Step  3710000 ----- CPU =   1025.5567 (sec) ----------------
Time     = 18550000.000000 Temp     = 235.766251 Press    = 1548.771169 
PotEng   = -8.752548 KinEng   = 0.701402 Lx       = 24.492051 
Ly       = 24.492051 Lz       = 24.492051 Density  = 1.042522 
Volume   = 14691.814848 
---------------- Step  3720000 ----- CPU =   1031.6213 (sec) ----------------
Time     = 18600000.000000 Temp     = 252.371066 Press    = 156.669252 
PotEng   = -8.858872 KinEng   = 0.750801 Lx       = 24.462219 
Ly       = 24.462219 Lz       = 24.462219 Density  = 1.046340 
Volume   = 14638.195175 
---------------- Step  3730000 ----- CPU =   1037.5937 (sec) ----------------
Time     = 18650000.000000 Temp     = 228.305160 Press    = 743.219145 
PotEng   = -8.804393 KinEng   = 0.679205 Lx       = 24.542083 
Ly       = 24.542083 Lz       = 24.542083 Density  = 1.036159 
Volume   = 14782.035529 
---------------- Step  3740000 ----- CPU =   1043.6355 (sec) ----------------
Time     = 18700000.000000 Temp     = 234.280976 Press    = 1116.323374 
PotEng   = -8.722645 KinEng   = 0.696983 Lx       = 24.379833 
Ly       = 24.379833 Lz       = 24.379833 Density  = 1.056984 
Volume   = 14490.793796 
---------------- Step  3750000 ----- CPU =   1049.7284 (sec) ----------------
Time     = 18750000.000000 Temp     = 234.345280 Press    = 470.080567 
PotEng   = -8.780234 KinEng   = 0.697174 Lx       = 24.317456 
Ly       = 24.317456 Lz       = 24.317456 Density  = 1.065138 
Volume   = 14379.852782 
---------------- Step  3760000 ----- CPU =   1055.6430 (sec) ----------------
Time     = 18800000.000000 Temp     = 229.865438 Press    = 417.123497 
PotEng   = -8.806874 KinEng   = 0.683847 Lx       = 24.542244 
Ly       = 24.542244 Lz       = 24.542244 Density  = 1.036138 
Volume   = 14782.327332 
---------------- Step  3770000 ----- CPU =   1061.5906 (sec) ----------------
Time     = 18850000.000000 Temp     = 242.397474 Press    = 1276.271182 
PotEng   = -8.756462 KinEng   = 0.721130 Lx       = 24.336173 
Ly       = 24.336173 Lz       = 24.336173 Density  = 1.062683 
Volume   = 14413.082441 
---------------- Step  3780000 ----- CPU =   1067.5376 (sec) ----------------
Time     = 18900000.000000 Temp     = 242.205877 Press    = 1219.102730 
PotEng   = -8.883682 KinEng   = 0.720560 Lx       = 24.360405 
Ly       = 24.360405 Lz       = 24.360405 Density  = 1.059515 
Volume   = 14456.177979 
---------------- Step  3790000 ----- CPU =   1073.6118 (sec) ----------------
Time     = 18950000.000000 Temp     = 231.675284 Press    = 1580.353053 
PotEng   = -8.807230 KinEng   = 0.689231 Lx       = 24.482180 
Ly       = 24.482180 Lz       = 24.482180 Density  = 1.043783 
Volume   = 14674.058540 
---------------- Step  3800000 ----- CPU =   1079.5361 (sec) ----------------
Time     = 19000000.000000 Temp     = 241.947436 Press    = 1167.469499 
PotEng   = -8.842559 KinEng   = 0.719791 Lx       = 24.475368 
Ly       = 24.475368 Lz       = 24.475368 Density  = 1.044655 
Volume   = 14661.814159 
---------------- Step  3810000 ----- CPU =   1085.4787 (sec) ----------------
Time     = 19050000.000000 Temp     = 244.813191 Press    = -11.539282 
PotEng   = -8.775561 KinEng   = 0.728316 Lx       = 24.687737 
Ly       = 24.687737 Lz       = 24.687737 Density  = 1.017927 
Volume   = 15046.790202 
---------------- Step  3820000 ----- CPU =   1091.4938 (sec) ----------------
Time     = 19100000.000000 Temp     = 239.973934 Press    = 885.328365 
PotEng   = -8.752664 KinEng   = 0.713920 Lx       = 24.336277 
Ly       = 24.336277 Lz       = 24.336277 Density  = 1.062669 
Volume   = 14413.266707 
---------------- Step  3830000 ----- CPU =   1097.6110 (sec) ----------------
Time     = 19150000.000000 Temp     = 239.943287 Press    = 572.005486 
PotEng   = -8.759202 KinEng   = 0.713828 Lx       = 24.588311 
Ly       = 24.588311 Lz       = 24.588311 Density  = 1.030325 
Volume   = 14865.724419 
---------------- Step  3840000 ----- CPU =   1103.6859 (sec) ----------------
Time     = 19200000.000000 Temp     = 236.510571 Press    = 115.297475 
PotEng   = -8.854592 KinEng   = 0.703616 Lx       = 24.584079 
Ly       = 24.584079 Lz       = 24.584079 Density  = 1.030858 
Volume   = 14858.049762 
---------------- Step  3850000 ----- CPU =   1109.6305 (sec) ----------------
Time     = 19250000.000000 Temp     = 238.588358 Press    = 2140.399479 
PotEng   = -8.795165 KinEng   = 0.709798 Lx       = 24.549210 
Ly       = 24.549210 Lz       = 24.549210 Density  = 1.035256 
Volume   = 14794.917909 
---------------- Step  3860000 ----- CPU =   1115.5095 (sec) ----------------
Time     = 19300000.000000 Temp     = 248.099938 Press    = 2070.143753 
PotEng   = -8.786829 KinEng   = 0.738094 Lx       = 24.372143 
Ly       = 24.372143 Lz       = 24.372143 Density  = 1.057985 
Volume   = 14477.086009 
---------------- Step  3870000 ----- CPU =   1121.5016 (sec) ----------------
Time     = 19350000.000000 Temp     = 242.803930 Press    = 799.157810 
PotEng   = -8.778040 KinEng   = 0.722339 Lx       = 24.484139 
Ly       = 24.484139 Lz       = 24.484139 Density  = 1.043533 
Volume   = 14677.581754 
---------------- Step  3880000 ----- CPU =   1127.4149 (sec) ----------------
Time     = 19400000.000000 Temp     = 243.098158 Press    = 711.617400 
PotEng   = -8.853284 KinEng   = 0.723214 Lx       = 24.531958 
Ly       = 24.531958 Lz       = 24.531958 Density  = 1.037442 
Volume   = 14763.747889 
---------------- Step  3890000 ----- CPU =   1133.4817 (sec) ----------------
Time     = 19450000.000000 Temp     = 247.113597 Press    = 904.930462 
PotEng   = -8.724853 KinEng   = 0.735160 Lx       = 24.410443 
Ly       = 24.410443 Lz       = 24.410443 Density  = 1.053012 
Volume   = 14545.444671 
---------------- Step  3900000 ----- CPU =   1139.5841 (sec) ----------------
Time     = 19500000.000000 Temp     = 242.417885 Press    = 721.730455 
PotEng   = -8.834553 KinEng   = 0.721190 Lx       = 24.519978 
Ly       = 24.519978 Lz       = 24.519978 Density  = 1.038963 
Volume   = 14742.130601 
---------------- Step  3910000 ----- CPU =   1145.4755 (sec) ----------------
Time     = 19550000.000000 Temp     = 225.324769 Press    = 1051.827238 
PotEng   = -8.820272 KinEng   = 0.670339 Lx       = 24.351982 
Ly       = 24.351982 Lz       = 24.351982 Density  = 1.060614 
Volume   = 14441.189374 
---------------- Step  3920000 ----- CPU =   1151.4201 (sec) ----------------
Time     = 19600000.000000 Temp     = 233.602273 Press    = 1230.455472 
PotEng   = -8.808661 KinEng   = 0.694964 Lx       = 24.391396 
Ly       = 24.391396 Lz       = 24.391396 Density  = 1.055481 
Volume   = 14511.421891 
---------------- Step  3930000 ----- CPU =   1157.5198 (sec) ----------------
Time     = 19650000.000000 Temp     = 255.803968 Press    = 576.343270 
PotEng   = -8.740107 KinEng   = 0.761014 Lx       = 24.410609 
Ly       = 24.410609 Lz       = 24.410609 Density  = 1.052991 
Volume   = 14545.740104 
---------------- Step  3940000 ----- CPU =   1163.5580 (sec) ----------------
Time     = 19700000.000000 Temp     = 232.515348 Press    = 1118.779326 
PotEng   = -8.820334 KinEng   = 0.691730 Lx       = 24.385215 
Ly       = 24.385215 Lz       = 24.385215 Density  = 1.056284 
Volume   = 14500.392964 
---------------- Step  3950000 ----- CPU =   1169.5864 (sec) ----------------
Time     = 19750000.000000 Temp     = 237.611694 Press    = 1310.765945 
PotEng   = -8.785937 KinEng   = 0.706892 Lx       = 24.297059 
Ly       = 24.297059 Lz       = 24.297059 Density  = 1.067823 
Volume   = 14343.698204 
---------------- Step  3960000 ----- CPU =   1175.6284 (sec) ----------------
Time     = 19800000.000000 Temp     = 232.677813 Press    = 218.549469 
PotEng   = -8.820973 KinEng   = 0.692214 Lx       = 24.568996 
Ly       = 24.568996 Lz       = 24.568996 Density  = 1.032757 
Volume   = 14830.719390 
---------------- Step  3970000 ----- CPU =   1181.7700 (sec) ----------------
Time     = 19850000.000000 Temp     = 256.803069 Press    = 797.021408 
PotEng   = -8.770996 KinEng   = 0.763986 Lx       = 24.337706 
Ly       = 24.337706 Lz       = 24.337706 Density  = 1.062482 
Volume   = 14415.805157 
---------------- Step  3980000 ----- CPU =   1187.8565 (sec) ----------------
Time     = 19900000.000000 Temp     = 235.070543 Press    = 1094.950442 
PotEng   = -8.813484 KinEng   = 0.699332 Lx       = 24.368583 
Ly       = 24.368583 Lz       = 24.368583 Density  = 1.058448 
Volume   = 14470.743187 
---------------- Step  3990000 ----- CPU =   1193.8391 (sec) ----------------
Time     = 19950000.000000 Temp     = 233.251459 Press    = 790.341164 
PotEng   = -8.859667 KinEng   = 0.693920 Lx       = 24.608003 
Ly       = 24.608003 Lz       = 24.608003 Density  = 1.027854 
Volume   = 14901.469130 
---------------- Step  4000000 ----- CPU =   1199.7170 (sec) ----------------
Time     = 20000000.000000 Temp     = 241.915315 Press    = 470.369548 
PotEng   = -8.869107 KinEng   = 0.719695 Lx       = 24.548289 
Ly       = 24.548289 Lz       = 24.548289 Density  = 1.035373 
Volume   = 14793.253760 
Loop time of 1199.72 on 6 procs for 2000000 steps with 512 atoms

Performance: 720.169 ns/day, 0.033 hours/ns, 1667.058 timesteps/s
99.7% CPU use with 6 MPI tasks x no OpenMP threads

MPI task timing breakdown:
Section |  min time  |  avg time  |  max time  |%varavg| %total
---------------------------------------------------------------
Pair    | 1004.7     | 1009.9     | 1016.4     |  12.9 | 84.18
Neigh   | 15.804     | 15.843     | 15.871     |   0.5 |  1.32
Comm    | 145.07     | 151.72     | 156.87     |  33.4 | 12.65
Output  | 0.0064081  | 0.012683   | 0.043949   |  12.4 |  0.00
Modify  | 18.416     | 18.655     | 18.759     |   2.8 |  1.55
Other   |            | 3.582      |            |       |  0.30

Nlocal:    85.3333 ave 90 max 81 min
Histogram: 1 1 0 0 1 0 2 0 0 1
Nghost:    468.333 ave 474 max 458 min
Histogram: 1 0 0 0 0 1 0 2 1 1
Neighs:    0 ave 0 max 0 min
Histogram: 6 0 0 0 0 0 0 0 0 0
FullNghs:  2082.33 ave 2195 max 1955 min
Histogram: 1 1 0 0 0 1 0 2 0 1

Total # of neighbors = 12494
Ave neighs/atom = 24.4023
Neighbor list builds = 100663
Dangerous builds = 0

write_data data.final
Total wall time: 0:40:01
