LAMMPS data file via write_data, version 4 Jan 2019, timestep = 3000000

512 atoms
1 atom types

1.0890914903886362e-01 2.4726090850961178e+01 xlo xhi
1.0890914903886362e-01 2.4726090850961178e+01 ylo yhi
1.0890914903886362e-01 2.4726090850961178e+01 zlo zhi

Masses

1 18.0153

Atoms # atomic

109 1 2.1897285340806533e+01 1.1454900576868159e+01 7.7010907715862285e+00 -82 -40 -48
360 1 1.9438483627829946e+01 6.2203751175687669e+00 2.4720337046141849e+00 -94 -35 81
45 1 1.9176025667012688e+01 5.0942408112106268e+00 6.3385224862758243e+00 3 80 -79
153 1 1.5484312062337207e+01 8.0948857129496865e+00 6.5457114851264535e+00 4 -22 82
436 1 1.0342818797420001e+01 2.8459569729989145e+00 4.2023107459125395e+00 42 68 18
254 1 1.4163928578416929e+01 1.1731869650451124e+01 5.2056618076067025e+00 41 87 42
149 1 1.2075942909273511e+01 9.2348295789290287e+00 2.8967696641990428e+00 -52 55 1
351 1 1.1285647537921339e+01 5.6847800863616547e+00 4.4311426721074252e+00 26 -31 -65
255 1 1.7667205287039891e+01 3.7252922170969458e+00 3.2144450185742803e+00 -123 9 78
271 1 1.3215339866372144e+01 6.9636588570972497e+00 1.7239303289750638e+00 43 30 -52
293 1 3.8646129576526032e+00 1.0775731116211707e+01 2.8897164954120864e+00 8 121 52
493 1 1.8631368995240052e+01 1.0534768162844465e+01 6.0198361949858867e+00 -40 83 54
356 1 1.8617682963781711e+01 1.0767953053675445e+01 2.2076204046100960e+00 -64 3 -1
222 1 1.9404284145118922e+01 2.8093748865768275e+00 1.2237379089381368e+00 21 55 48
178 1 1.4912916378129360e+01 1.0175708032716729e+01 2.8328214489197947e+00 68 40 -62
475 1 1.6705009142775715e+01 7.8565752629808925e+00 3.9241391589285533e+00 18 -10 -14
456 1 8.2230657563526872e+00 7.9133848297945608e+00 2.0861908255065655e+00 -33 -44 10
95 1 1.9066140994748642e+00 2.4988404956618493e+00 2.1407530456393049e+00 60 130 -9
173 1 1.9982408975406640e+00 7.4096583451580438e+00 6.5122509349700879e+00 38 59 -1
304 1 1.1353383941477373e+01 1.2115436743522148e+01 5.6104082864966598e+00 -18 -53 114
117 1 1.0199276218801087e+01 9.9521317228530464e+00 1.4506842388663577e+00 48 49 86
226 1 1.3966624582224876e+01 3.9706011070633869e+00 4.6279049201968574e+00 2 4 -6
242 1 2.0832158331227397e+01 1.0043512243088223e+01 3.1257167187789943e+00 7 5 -50
380 1 1.2552123946322949e-01 9.3554196374442942e+00 5.3788630369253072e+00 -9 72 62
479 1 4.9088732141765030e+00 7.6987021451819428e+00 6.6020202614118810e+00 -29 -17 -51
90 1 6.5514379628840684e+00 1.9137862052830268e+00 5.1130450019149825e+00 -53 -50 -69
114 1 1.9451384694225624e+01 7.8373710049613790e+00 5.0515624402209873e+00 -16 19 -16
476 1 2.2431802011189056e+01 8.5360701772269163e+00 1.1419209611023751e+00 -37 -6 -56
168 1 7.8233516840817234e+00 5.0789432948728956e+00 8.5703956485788235e-01 101 -46 -62
485 1 1.5516634842403041e+01 5.1988435885779527e-01 2.3651999468576763e+00 -21 1 81
258 1 2.4678594235676933e+01 3.4184090013736967e+00 4.7231541926623943e-01 117 -52 63
43 1 5.9793625704914142e+00 5.2979359483412622e+00 8.2111163126680697e+00 -8 -3 24
377 1 1.6006080737605039e+01 1.0590864259776824e+01 7.3259027434505741e+00 18 6 -103
171 1 2.2612740898012653e+01 7.7714482153463633e+00 4.4695226715716414e+00 -41 43 10
325 1 1.5075260618641133e+01 3.6080522910757464e+00 8.0361051973305084e+00 -76 29 29
478 1 3.3808651062306043e+00 1.2086410088926426e+01 5.5726578306401597e+00 24 -5 38
206 1 2.3227992021848550e+01 4.6014000383244493e+00 7.3805973285837947e+00 19 -87 23
275 1 1.2463667146309718e+00 9.9035398572562894e+00 1.7825856965983158e+00 26 -14 29
164 1 1.6347834396993206e+00 4.8553352536033412e+00 5.3129049384494662e+00 61 21 148
142 1 1.2986038269691456e+00 1.1549882461938508e+00 5.1389463035611112e+00 19 21 58
373 1 1.7101178672523240e+01 2.8651963233741164e+00 6.1978195104096958e+00 51 39 -44
327 1 5.6876585832532123e-01 1.0614475165458199e+01 7.6586152101526617e+00 84 -1 -7
210 1 8.4367440129622047e+00 6.2111118138221579e+00 4.6227744201329024e+00 -5 1 37
17 1 8.9711355265735317e+00 8.9757455788305285e-01 6.1851012680123256e+00 53 18 15
59 1 7.6604290175025156e+00 9.7832635996507129e+00 3.8758362180890193e+00 39 -99 56
176 1 7.8935539878758672e+00 2.8421604798416862e+00 2.6564297966919326e+00 -99 -95 -35
198 1 4.7296796599844876e-01 1.1863095341165282e+01 3.9621962866945970e+00 -37 50 9
118 1 2.6998043557822142e+00 5.1150624069593063e+00 2.6942486411385707e+00 -23 134 -85
119 1 6.4861516038422371e+00 1.0200747164108308e+00 1.0832838523867954e+00 51 68 96
15 1 8.0155852071414841e+00 1.1681536766371080e+01 6.9091908682539218e+00 13 -11 -126
371 1 1.5598949460537673e+01 3.1377700798259478e+00 1.2244872914855145e+00 -80 36 -60
28 1 6.0216931629655397e+00 4.8467190025164602e+00 4.6180989094776281e+00 24 42 21
333 1 1.1101762955039492e+01 5.1692420263709709e+00 1.0283801318902961e+00 18 38 35
184 1 2.0847356115489774e+01 2.0860513384690282e+00 6.9578934458700310e+00 0 17 39
276 1 5.2708666039175176e+00 8.3836195890902854e+00 3.9174633928834592e+00 23 167 -26
233 1 1.2572000974105881e+01 3.2275700622341810e+00 6.9128318639289477e+00 -13 -34 -29
245 1 8.6617635891394862e+00 8.4474981557451425e+00 6.1836630216442607e+00 -20 7 99
261 1 2.3031180150355183e+01 5.1768807949518294e+00 1.9796190130551359e+00 8 38 -114
344 1 8.9281691556851062e+00 5.2629167806737076e+00 7.3060178718037081e+00 38 -44 4
342 1 2.0286766886158588e+01 9.1435560101749191e-01 3.4305342629662157e+00 31 -11 13
502 1 5.4156963729184628e+00 1.1473202783447540e+01 7.3091330463029680e-01 -40 -27 -43
495 1 5.8515689232936836e+00 2.7297532676129674e+00 7.7467492808565668e+00 -34 14 -60
323 1 1.1128538424865338e+01 9.1323198836765762e+00 5.4692569571315159e+00 11 -110 25
57 1 7.1177511094541024e-01 6.8010296619445310e+00 1.4172614085720796e+00 -24 3 29
166 1 2.1669848297465705e+01 8.5724936373620046e+00 7.3806388192201178e+00 37 -5 -21
251 1 1.2876757888647445e+01 7.8403782186988140e+00 6.8718972457357710e+00 -37 28 -48
407 1 2.0815505326512387e+01 3.7868485083859960e+00 4.2824771780806570e+00 13 4 58
16 1 5.1249794620599953e+00 6.5317763342657518e+00 2.2642920037842438e+00 144 92 4
85 1 1.6452230302633531e+01 5.9442299405426811e+00 7.6076725297368553e+00 18 40 -96
94 1 1.2744530585461204e+01 2.9293940612623661e+00 2.2395653809671066e+00 -62 29 50
138 1 7.9674155868290422e+00 1.2059812431355720e+01 2.5106612952384784e+00 188 30 18
135 1 5.4084044257634858e+00 1.0462898941828724e+01 6.6697779078294106e+00 0 56 -70
511 1 3.2356277532039699e+00 2.9948128268000556e+00 6.6473472737451820e+00 50 7 105
457 1 2.3437590792610671e+01 5.1254726721624664e+00 4.9020921349024498e+00 -25 -45 69
331 1 1.7566385922114975e+01 8.5706299530384005e+00 1.4028049926905257e+00 35 15 -4
287 1 1.4934631218425400e+01 1.2180795602402077e+00 4.8993479634151127e+00 -15 0 -4
56 1 1.5433431492111813e+01 5.8071940624427452e+00 3.0504931745811943e+00 -16 77 23
430 1 2.3491865360213595e+01 1.2204975632233854e+00 6.5202588773220072e+00 56 51 8
207 1 1.1589084348895408e+01 5.4937657889824507e+00 7.7089525947416808e+00 28 -30 15
263 1 8.9098157790367640e+00 2.5389787893388926e+00 8.2386203675516310e+00 39 142 -3
148 1 3.8435547784623201e+00 1.4179811256548303e+00 2.0822572459731109e-01 -46 56 65
152 1 2.2135146346199107e+01 1.2227779887243415e+01 3.4401286311886086e+00 -54 -146 -15
415 1 2.0477857879136646e-01 1.2281121552580743e-01 2.3019021830240218e+00 -58 -42 18
154 1 1.8697655669977259e+01 2.1176248557475930e-01 5.6442678637362267e+00 99 -20 -8
80 1 2.0593463990173795e+01 6.9806535924932192e+00 2.6629680119647503e-01 26 55 5
365 1 2.0619843972876652e+01 3.5212765857771444e-01 2.9043182573785487e-01 -11 74 -33
110 1 2.3477106337606735e+01 1.0052177417891016e+01 1.1479806879462048e+01 30 -29 -31
368 1 1.2404899659917696e+00 4.6980644000863112e+00 1.2211214791224640e+01 50 -33 39
474 1 1.6728921131890175e+01 1.1100879835345234e+01 1.2161337243527086e+01 -15 -53 -26
336 1 3.3609128068659269e+00 6.4827445868550457e+00 9.6528890844474695e+00 36 -15 -121
504 1 2.4247790061945487e+01 2.2216722547605161e+00 1.1370931865841284e+01 -40 -23 46
163 1 1.4783873198671660e+01 5.1656010172346427e+00 1.0952945527372725e+01 -52 -63 2
180 1 1.8104740280833397e+01 6.1093034633869356e+00 9.8025917884635483e+00 3 289 -28
326 1 2.0885480560383442e+01 5.3625677924531674e+00 8.5501751024446513e+00 38 123 -7
160 1 8.8181320944760291e+00 7.6648389591350794e+00 9.5494593147532552e+00 -14 49 45
6 1 1.1229844264742406e+01 1.7830968078533251e+00 1.5836369813278649e+01 83 26 -30
1 1 7.0174194827805128e+00 6.2025026621952923e+00 1.0876135594300896e+01 -53 -32 59
406 1 1.3347535194605575e+01 1.0407803896442037e+01 1.4603836189085072e+01 42 140 10
394 1 1.3480994513992293e+01 5.2498115716572524e+00 1.5286601828684908e+01 -108 0 -20
107 1 9.8988338216987048e-01 1.1745345205235191e+01 1.4741275250293135e+01 -37 58 -138
68 1 1.0989864487094492e+01 4.0271249571663077e+00 1.4265376276815825e+01 3 -16 8
506 1 1.1508363589871717e+01 2.6272889220915752e+00 1.1797485510188176e+01 -14 -22 1
447 1 1.4669691430784953e+01 1.0538376300598864e+01 9.9569832848665598e+00 2 -123 22
111 1 1.7190761236099874e+01 5.9833552412982947e+00 1.4803545554935246e+01 5 48 93
143 1 1.4940248598894064e+01 7.9152441284702428e+00 1.1163078299540288e+01 38 -3 -13
76 1 1.7530527985530782e+01 8.0832345315639884e+00 1.2068544709137928e+01 19 25 11
414 1 8.5971785905274007e+00 1.6392014485108286e+00 1.0826609912531184e+01 98 14 56
65 1 1.3243829170010763e+01 1.2059309062563775e+01 1.1475465061407256e+01 -37 76 -12
202 1 1.9253336416235058e+01 1.0373150451339736e+01 1.5524944137496872e+01 29 96 -16
427 1 3.0714981871075446e+00 1.2093244601379926e+01 1.3185920175470185e+01 121 -22 31
71 1 5.7792281108315100e+00 7.2961552578761708e+00 1.5182694883828420e+01 62 -57 -74
443 1 1.1399194016825204e+01 7.4035699195159212e+00 1.0815818708888942e+01 -105 30 -4
145 1 4.6994355117103357e+00 7.3286260400222225e-01 9.3500213982335847e+00 27 0 -47
359 1 2.3804255365012516e+01 8.6647523288586576e+00 9.1914621459112347e+00 -39 56 5
339 1 2.2752954657320778e+01 5.9972447955941162e+00 1.1001315411723247e+01 21 47 3
134 1 4.3534827043370656e+00 2.2613672276856929e+00 1.5460146028978816e+01 -69 -15 13
428 1 2.4190766161065739e+01 6.6447785448820893e+00 1.3377487800298601e+01 61 -11 -5
442 1 1.3688609344985831e+01 7.8540635811347963e+00 1.3652311425258555e+01 16 -10 -110
181 1 1.3798077319770274e+01 9.3553500127477229e-01 1.2257262033014523e+01 86 72 -48
494 1 1.9370964707534775e+01 1.1585933235638294e+01 8.6873387438858067e+00 -10 59 -78
378 1 2.0637704784535877e+01 3.1366753423986521e-01 1.6419721928956541e+01 11 -15 -66
223 1 9.6557014185336421e+00 1.2020652708753078e+01 1.4863111595645886e+01 105 37 9
395 1 3.0192289637861296e+00 9.5640492015087659e+00 1.1831400166676096e+01 -29 38 -48
306 1 9.1902226252548864e+00 1.0050335041338327e+01 1.1273066523382361e+01 -9 61 -66
471 1 7.5358685400631282e+00 3.8141243551095907e+00 1.2187325485412892e+01 -82 -15 24
486 1 1.3364734561324527e+00 1.1702477092630723e+00 1.3331353593993359e+01 53 16 -5
209 1 2.4119874864103883e+00 8.3770135905493319e+00 1.6068733550745648e+01 0 14 -46
491 1 1.9457902453126628e+01 8.9017091351310658e+00 9.3884601235979357e+00 -35 -26 -15
438 1 2.1503097362699478e+01 1.1911509618905521e+01 1.1118564252813506e+01 29 -13 -46
49 1 8.5280577579731283e+00 5.1674816721032961e+00 1.4420738576076706e+01 -11 31 -28
472 1 2.9379796285417097e+00 3.9215529125240760e+00 1.0169689215828493e+01 28 -25 66
492 1 1.2223375776904952e+01 4.7990601229487391e+00 1.0229407510941638e+01 -1 -16 47
81 1 1.9497987804807543e+01 1.0684900691562675e+01 1.3006226735231849e+01 44 84 -19
190 1 2.3353445339504169e+01 5.8321713925110741e+00 1.5809759212825290e+01 98 76 28
84 1 1.1074462994684188e+01 1.0605751406789789e+01 1.3122782821094507e+01 33 63 24
473 1 4.8000160067414264e+00 3.3736594210890880e+00 1.2518706538594236e+01 -42 -39 71
444 1 2.0043685821059320e+01 2.3278965075387763e+00 9.6931426468976856e+00 1 -31 10
199 1 7.1444449740446396e+00 1.1398886118307455e+01 1.5042271488293068e+01 25 76 -23
62 1 1.5885321461352502e+01 2.4362503588081519e+00 1.0463199630331143e+01 77 -29 -45
489 1 9.8803207452430435e+00 1.0982435839661857e+01 8.5086940194943352e+00 78 183 -43
400 1 1.9528189171557905e+01 5.6181993773066790e+00 1.3405911908718560e+01 49 22 -28
44 1 2.1077163859368895e+01 8.4272176507819356e+00 1.1946991964144223e+01 -22 -32 107
435 1 1.1062985018246449e+01 7.5820903346631576e+00 1.3344128872943973e+01 -51 -9 -14
174 1 2.1757715488543070e+01 3.3951000658226986e+00 1.1284102698603204e+01 6 96 -25
424 1 8.1480022315875900e+00 7.7684363186819931e+00 1.3721997322645636e+01 40 7 -18
183 1 4.3473146467811095e+00 7.1640259007854450e+00 1.2162967082970033e+01 38 98 21
195 1 2.3416177967608235e+01 2.8857762586102842e+00 1.5865698652365870e+01 -14 -4 75
384 1 1.5711618173432754e+01 1.1246861932244684e+01 1.4532761826327887e+01 1 9 9
422 1 1.0112045935791378e+00 8.8875389846304369e+00 1.3577492584847722e+01 -15 70 67
409 1 1.9238274664556734e+01 6.5038680003363281e-01 1.3636444895889651e+01 -67 84 71
150 1 2.4667299103152502e+01 6.0148592232351534e+00 9.1996059152059626e+00 81 -29 69
401 1 1.2320523161497208e+01 9.1929717017892951e+00 9.2079939410795433e+00 28 2 25
281 1 6.2468769882877941e+00 9.7384220143724676e+00 1.2288984963773354e+01 39 -38 112
97 1 2.6603123954828609e+00 9.4207671809369451e+00 8.9524016210983124e+00 24 69 -14
132 1 5.4878222961325038e+00 1.0794113446468875e+01 9.4449906258546008e+00 -47 1 -69
203 1 3.5828158949977063e+00 5.6104242482980311e+00 1.4333162128801259e+01 119 -115 82
433 1 1.4642118132815991e+01 1.8552377495994610e+00 1.5002853473806473e+01 16 -56 -39
224 1 2.1204071435563442e+01 2.9832100870124427e+00 1.3970303850162965e+01 62 -99 12
383 1 1.6760487153887645e+01 8.7765396035029664e+00 1.5272309077491128e+01 -43 96 -28
35 1 1.8133362519785940e+01 3.8273585016228466e+00 1.1382800630999290e+01 -58 23 -43
82 1 1.5284658227717649e+01 4.2092951006611798e+00 1.3651716777864985e+01 -6 -4 -1
316 1 2.1069481389841869e+01 7.5326110997858642e+00 1.4655028730296673e+01 38 116 67
375 1 1.3821081537637434e+00 2.9153879402702692e+00 1.5314824029087289e+01 12 54 -120
283 1 8.6844341767967270e-01 2.4372064393978898e+00 8.7055938879165264e+00 87 -38 63
423 1 1.7883526259834532e+01 4.2743119573506572e-01 8.6485113031430920e+00 -15 6 59
237 1 9.0407900048390175e+00 8.3837733496498679e+00 1.6390564727588234e+01 16 -33 -18
83 1 1.1584480528156611e+01 1.4353252735568831e+00 8.6875577861259821e+00 35 5 6
185 1 4.4153924978390107e+00 3.5153165814938270e-01 1.2069279934874526e+01 1 17 -8
100 1 1.9749465034603126e+01 1.3145592943346429e-01 1.1061596275824384e+01 50 -128 -12
343 1 6.6298169336575985e-01 9.0589382348768996e+00 2.1825821573298128e+01 -71 13 154
354 1 2.3074934471692128e+00 4.9984237368831579e+00 1.9686962084366918e+01 -1 50 20
58 1 1.6968220660924409e+01 9.2219934365702336e+00 1.8025959192339485e+01 3 -21 -3
27 1 1.0501057526482327e+01 8.1246114615841378e+00 2.2731225738209822e+01 10 -27 59
39 1 1.4633863224102537e+01 9.3724079879839266e+00 1.8959027529307150e+01 3 41 42
482 1 2.3349236370416456e+01 7.9766305520056298e+00 2.0447357415130391e+01 9 75 38
197 1 1.6460437485159304e+01 3.3496076081928998e+00 1.7482143112747316e+01 9 37 56
392 1 5.3688222890718924e+00 5.7250890854246350e+00 1.7559717829201794e+01 20 11 -61
244 1 1.1661997647608917e+01 7.4680206584248254e-01 2.4418536524257213e+01 -38 70 -3
480 1 1.7264770539089220e+01 1.8972380774937259e+00 2.4032463935339543e+01 9 -42 86
72 1 1.5754859109853250e+01 1.9101882082001862e+00 2.0029486543377935e+01 36 58 43
18 1 5.4056372961966321e+00 3.6872662481836889e+00 2.3527930379467044e+01 58 60 36
467 1 5.0150074120158878e+00 9.7584850426163783e+00 1.6779290082862701e+01 -65 97 48
124 1 8.9481930101089198e+00 6.0280770573549933e+00 1.8358355706998815e+01 -47 155 -30
75 1 1.8318702619366839e+01 5.3740530708332193e+00 1.7059559522769518e+01 6 40 7
296 1 1.8282357194761602e+01 7.7988118005353018e+00 2.3436518660023928e+01 -41 -101 58
463 1 1.7928102124647509e+01 2.8544102269746898e+00 2.1685733784508614e+01 -47 30 -34
432 1 1.7553390480072913e+01 5.4326267929853760e+00 2.1974097040708756e+01 35 -60 11
231 1 4.1583713092726926e+00 2.4137789731972803e+00 2.0767863372064596e+01 -36 12 40
3 1 1.2875465528142888e+01 1.3850517751307254e+00 2.1552600122699381e+01 10 53 27
2 1 7.6856013068721820e+00 2.1529385585602574e+00 1.8317988515409013e+01 -45 0 -11
189 1 5.3118530489538873e+00 1.2151345784392351e+01 2.1263435211329458e+01 122 -50 -36
497 1 1.4283966493292002e+01 7.0422741406063185e+00 2.0479992554475309e+01 -4 37 19
212 1 2.2067485423275571e+01 1.1209337344116950e+01 2.1474048610882967e+01 -13 -46 -32
96 1 1.5180161579981021e+01 5.1174802281834202e+00 2.3420959053472480e+01 230 43 66
369 1 8.9961548266126297e+00 1.0026035469970308e+01 1.9802112339858944e+01 2 64 7
312 1 1.2366378413686061e+00 9.8188824467035207e+00 1.7727775586027882e+01 -3 15 14
105 1 1.5320798614111499e+00 1.4598753656267196e+00 1.8231546313285506e+01 9 82 8
172 1 1.3001811356239994e+00 6.6633361345112707e+00 2.3252071078056694e+01 -26 -108 45
235 1 3.0759353046519373e+00 1.2219583074398390e+01 1.6980152432938013e+01 23 -53 149
221 1 1.1124829225911208e+00 1.1098037963092581e+01 2.4163339890036021e+01 6 0 35
299 1 2.0556113423897799e+00 5.7034626392718613e+00 1.6850483889863078e+01 45 14 49
112 1 1.0480311450412595e+01 1.0893982203662267e+01 1.7520741434626991e+01 25 86 -34
413 1 9.9761872613723419e+00 1.0840570368127905e+01 2.2952295618955397e+01 -20 4 -28
274 1 2.3256088744589448e+01 1.1171949015241844e+00 2.4169882819326041e+01 -48 37 6
259 1 3.8897261067931654e+00 5.8046132817324709e+00 2.2694733353962050e+01 7 50 29
256 1 3.1353727815224270e+00 9.5189336705364465e+00 1.9809723728391134e+01 30 22 -35
77 1 4.1450947134138705e+00 6.9029411167019283e+00 2.0325031201983933e+01 56 -38 8
307 1 2.4719496097068514e+01 1.2024072754272932e+01 1.9908510740882782e+01 -54 97 -15
455 1 7.1768269685107651e+00 5.4761364812905660e+00 2.0622816412436762e+01 56 97 25
232 1 1.0544561429781560e+01 4.6571971635798066e+00 2.2972446174649065e+01 96 37 36
9 1 2.3147671189444566e+01 1.0735197655076538e+01 2.4016682400527905e+01 -37 35 15
302 1 2.1747552632768659e+01 6.3015575708763150e-01 2.0746179463499914e+01 37 -63 -24
29 1 1.7680829525193161e+01 1.1472644811778077e+01 2.1969359592149843e+01 64 -45 -26
329 1 4.6338198079611619e+00 8.0452197265198162e+00 2.4159501162492425e+01 2 -122 -62
229 1 2.1824630713253413e+01 5.1239178860510970e+00 1.8085453032026855e+01 50 28 17
262 1 6.8690403012303545e+00 2.6944670405524986e+00 2.0958222878851835e+01 4 48 -39
78 1 1.6303421579267408e+01 9.2554302111202080e+00 2.2023118879928568e+01 -18 -49 -20
376 1 1.4158795710439625e+01 5.1073977417830063e+00 1.7988918131774227e+01 -84 -5 -19
40 1 3.6263358997603126e+00 1.0374068341734896e+01 2.3464012476849220e+01 0 36 56
405 1 2.0871514969097639e+01 8.5600009530984966e+00 1.7024582572016627e+01 -23 -11 51
453 1 1.2709615309381638e+01 4.3806149652270223e+00 2.1731633496646133e+01 58 -7 3
404 1 1.2658753710096436e+01 9.4640333332899829e+00 1.7199713653919900e+01 -25 141 51
216 1 2.3692603745837381e+01 3.0525673701874738e+00 1.9048270197202022e+01 -28 -10 163
324 1 2.2777666316783119e+01 1.1628815301458129e+01 1.7548982111413991e+01 4 -58 83
313 1 2.0089747292986338e+01 3.5831490049242567e+00 1.6822061349085637e+01 -47 38 35
462 1 2.3566444211265967e+01 8.3162683658833778e+00 1.7784355206337871e+01 -70 15 40
318 1 1.8481340531933220e+01 7.3661749811757353e+00 1.8948318123027718e+01 37 0 156
411 1 8.2355767918959781e+00 6.8077211491043075e+00 2.2949088009451856e+01 22 111 154
352 1 1.9392188108801323e+00 3.3618019588247714e+00 2.2880373361480927e+01 39 -36 -67
155 1 2.1512484177253462e+01 5.2902486347195401e+00 2.1971786616467277e+01 -53 28 24
454 1 2.0581286714880584e+01 7.7786614545442809e+00 2.1157524145266031e+01 -48 49 12
303 1 1.0745498869790270e+01 2.4949392189551736e+00 1.8525594332563713e+01 25 -1 200
355 1 6.4436155557536381e+00 9.2783620429812057e+00 2.1115738201614064e+01 -27 -3 67
437 1 6.6235648892830232e+00 3.7425631773497514e-01 1.7106329735692441e+01 15 14 -117
125 1 2.4199545743012855e+01 1.3700240203644607e+00 2.1684854881606043e+01 -49 -37 -8
215 1 9.3176258587971734e+00 2.3052050495796359e+00 2.2088635994362775e+01 4 -131 -41
240 1 1.9874881274474149e+01 1.0191824570265181e+01 2.3206111576636829e+01 -223 142 56
389 1 2.4232634856023694e+01 5.4720067261018368e+00 2.1235155140181597e+01 9 74 -25
379 1 1.5179142526935365e+01 9.5010259088800719e+00 2.4490182222513816e+01 140 -12 56
429 1 4.0171624477313532e+00 3.1211516175904288e+00 1.8219170540087767e+01 -30 -36 41
408 1 1.2586337335464121e+01 1.1271746543805898e+01 2.3909909543732425e+01 -136 32 55
144 1 1.8738442752179978e+01 1.3864420366111525e+00 1.8751801224496830e+01 -24 41 38
104 1 6.5503696692929738e+00 7.9336376215340048e+00 1.8427204258399513e+01 81 33 -21
101 1 7.2838110633649533e+00 4.3233861705056347e+00 1.6594114603032288e+01 -35 -26 70
298 1 1.8130292791726077e+01 1.1695866279973499e+01 1.9200277270260926e+01 7 43 11
314 1 2.0463860819104113e+01 1.0319430603322308e+01 1.9389003973910917e+01 -14 29 -3
496 1 1.1229987398095732e+01 8.0371615671265353e+00 2.0242221399897396e+01 -6 -27 27
267 1 1.1595542831121930e+01 5.2476310170827141e+00 1.9226702600195473e+01 -101 67 -58
227 1 2.0483611924303084e+01 3.1105876888991224e+00 2.0467004494583108e+01 135 104 -5
508 1 1.3280001987316446e+01 7.6219209239336845e+00 2.3845006317512492e+01 16 15 -76
295 1 7.2799905235828302e+00 9.2501318461776005e+00 2.3956028397382845e+01 -45 -10 -8
426 1 2.1594720809455751e+01 3.7520315207462653e+00 2.4007941941733868e+01 88 0 67
403 1 1.1548275639694312e+01 7.2221296434247240e+00 1.6612226457197920e+01 -68 43 11
187 1 8.1711613871518907e+00 3.7428892735139419e-01 2.3718479795852993e+01 -7 20 -16
182 1 1.3996563524699026e+01 1.1869212371828255e+01 2.0195995285686593e+01 111 55 36
445 1 1.2310932742402144e+01 2.4266847739672265e+01 6.1738565183404592e+00 120 72 10
460 1 1.8607483943925295e+01 2.0433250433344853e+01 6.8698882508917025e+00 -118 123 35
127 1 1.1420856847233058e+01 2.4605689522764919e+01 3.4980959032640899e+00 51 63 73
139 1 2.3782867477724508e+01 1.5797172637605895e+01 1.1945488913115860e+00 -17 0 -24
193 1 1.7658438385050587e+01 1.8192784028111113e+01 4.1849478938087303e+00 -72 27 -9
129 1 1.5999884083429269e+01 1.8457751335676662e+01 6.6276720164791874e+00 -49 -26 -85
177 1 1.6135195872869666e+01 1.3197404224064714e+01 7.9918305530632106e+00 -22 -32 38
349 1 2.2539476312127306e+01 2.3569763760805614e+01 3.5347290927774049e+00 -3 18 50
272 1 5.3375419830397579e+00 2.4197347968036539e+01 4.3246637089546986e+00 -15 -1 106
490 1 7.8833258728943658e+00 1.5505931208030699e+01 5.4242272265781892e+00 12 -96 5
347 1 1.4578577388913123e+00 2.2012598813802953e+01 2.6008116576901461e+00 -123 -3 -1
54 1 2.2834040053789096e+01 1.7848297121954943e+01 6.0259517074694982e+00 0 15 45
115 1 5.1371968415712910e-01 1.8169829638827721e+01 2.4106409777387570e+00 79 -147 32
8 1 1.6365253383980097e+01 1.6103337284115206e+01 2.8479200160692013e+00 -20 26 -23
108 1 3.9119485757436219e+00 2.0961398021977722e+01 1.5761057932427476e+00 45 -43 34
308 1 2.0682932995865656e+01 2.2212085610119182e+01 1.3559093447037900e+00 50 103 71
13 1 1.1321212408533075e+00 2.0909932075083240e+01 5.4265307436851025e+00 137 -9 66
487 1 1.5781910634253133e+01 1.4145800271330168e+01 4.8768528796499266e+00 22 41 -6
51 1 1.6314358428216202e+01 1.9853435151776303e+01 2.6820189823688105e+00 50 -10 -37
364 1 1.1088393243631112e+01 2.0317375765715859e+01 3.2633008612132053e-01 101 14 -21
55 1 1.4136201041911997e+01 1.6383137024791999e+01 5.5257824579591093e+00 36 71 -25
399 1 2.3186465292619395e+01 2.1032394376225994e+01 1.4577441980949466e+00 17 62 -19
357 1 2.0030850186778046e+01 1.7784189898239184e+01 6.3296635029060750e+00 3 -13 0
470 1 1.1797790315434257e+01 1.3953520334136220e+01 7.6987158854097082e+00 23 -39 -134
157 1 1.1328657881023258e+01 1.8918740900562554e+01 8.2171674608138812e+00 -4 -13 59
387 1 3.0278750085831159e+00 1.8522519643562802e+01 1.1707047464873568e+00 73 -21 121
220 1 1.0410136957686191e+01 1.3140140434555885e+01 3.1896855421755257e+00 61 -5 8
335 1 1.2803274092235117e+01 1.6667822284518181e+01 2.6750932933391107e+00 13 -22 85
412 1 3.0040492307175590e+00 1.9247078117116679e+01 6.1802082455561367e+00 -20 19 -68
503 1 1.1656644480722866e+01 2.1596161382282197e+01 5.8271396184580446e+00 -16 6 35
277 1 9.6806865076896340e+00 1.5721106466870506e+01 3.2434885541126661e+00 38 -1 113
37 1 1.0370513894563590e+01 1.8832573554740556e+01 2.6459927345356782e+00 40 27 -42
363 1 2.4708943082869258e+01 1.5920118676384037e+01 6.9040054899700500e+00 -19 -36 21
201 1 2.2897822095637864e+01 1.5512615227198062e+01 3.9730800781613120e+00 -95 -55 32
310 1 5.0670130178193507e+00 2.0497903356069919e+01 7.3487155728237061e+00 -9 -11 6
170 1 1.4220525050527872e+01 1.8691443522944041e+01 1.7111926104497142e+00 13 44 -15
186 1 2.0113010837849785e+01 2.3031590968921634e+01 7.7775995119203643e+00 -28 173 35
161 1 1.2375566712433818e+01 1.3237196030418325e+01 1.3166163012951460e+00 34 -38 44
217 1 1.3355995875686967e+01 2.4035241834218390e+01 1.4513638217741760e+00 94 -43 78
169 1 2.0911956664233649e+01 1.3145170655780920e+01 5.7557250698350133e+00 -3 35 5
122 1 9.2292257657507619e+00 1.5351613976560309e+01 7.7608533371949058e+00 8 5 14
103 1 1.9625806453869428e+00 1.7735286982529971e+01 7.9907303622662420e+00 -16 36 -43
340 1 2.1849597454559849e+01 2.1239978147816906e+01 5.2391165110569986e+00 57 40 20
208 1 1.6983097893842668e+01 2.2122642066653952e+01 4.7344389640025968e+00 22 84 -10
63 1 2.3993739696641995e+01 2.0915233405165260e+01 7.7845310889234272e+00 1 0 -99
294 1 6.7942147751391788e+00 1.6534763343621769e+01 1.8687231756022480e+00 34 38 -76
4 1 2.3675573394993499e+01 1.9513595185309512e+01 4.2164616657658467e+00 30 -70 8
372 1 2.2336089498845482e+01 1.3355260848231980e+01 3.3291716926500403e-01 24 -5 11
450 1 1.5936236728888526e+00 1.6228852184094947e+01 4.0930780687615673e+00 132 -76 24
300 1 2.2870222919739760e+01 2.3487515353827156e+01 7.7965562528934163e+00 -89 64 33
278 1 2.7825598326926491e+00 2.3612212868307573e+01 5.6550344166626063e+00 -88 -99 51
128 1 1.4215627590864564e+01 2.1781985773684404e+01 3.4506976409340622e+00 15 4 -21
123 1 9.4919280328751938e+00 2.0458376078752323e+01 4.3361646456015794e+00 -68 -7 5
257 1 1.4106523512265637e+01 2.0515900506132901e+01 6.6323031541848225e+00 -31 23 47
370 1 1.4907288015500365e+01 1.2910313059660497e+01 2.0356766291391786e+00 -25 117 37
338 1 1.4049232932860395e+01 1.5106458596879877e+01 8.0292198630641636e+00 -11 -5 38
499 1 1.9893773328179648e+01 1.5793805828991060e+01 3.9712770237803965e+00 39 -20 -62
386 1 6.3101047193289954e+00 2.2767754069920350e+01 1.7213465863152844e+00 81 -55 -4
234 1 1.3341262492443471e+01 2.1549012301422060e+01 4.1942418891257588e-01 69 -16 14
42 1 1.1416022397481843e+01 1.7044924540654591e+01 6.0604824221806428e+00 5 71 -76
250 1 1.9530001505340778e+01 2.0932235164236772e+01 3.5331340432389986e+00 -7 12 164
141 1 2.0077164499567303e+01 1.5353062992941929e+01 1.2230747342156190e+00 94 74 -13
448 1 9.2407561483513767e+00 1.5272043473965239e+01 1.6962919678227698e-01 12 -39 -23
249 1 9.4038851823989091e+00 2.2885634117220739e+01 2.8342214776483106e+00 -72 -47 -33
79 1 1.8191219692658308e+01 1.2914745955737169e+01 4.2932879031793778e+00 -1 -103 99
292 1 8.5223432018051994e+00 2.3073900048042589e+01 7.4054691494126885e+00 -18 21 53
330 1 6.6777407255356769e+00 1.3248882697541152e+01 4.5428167998605735e+00 -13 31 37
162 1 6.6402660453548057e+00 2.1889808259790918e+01 5.6020379476951492e+00 -40 3 0
200 1 7.9200167510119526e+00 1.9137038571339879e+01 1.3874887794789261e+00 68 83 -14
33 1 2.0798391933360968e+01 1.5394485840187670e+01 7.6874011754871088e+00 -99 -43 -17
270 1 6.1116567706415150e+00 2.0050552253575759e+01 3.5245811714103690e+00 24 121 103
151 1 1.5280247587158392e+01 2.3273860408716487e+01 6.4430871198404942e+00 -38 -32 -13
133 1 1.9087905394648025e+01 1.2543282976937146e+01 3.7577506987627018e-01 -37 68 -42
353 1 5.4523951248651601e+00 1.6794148011192746e+01 6.3835126782490885e+00 -165 66 94
31 1 2.4100903065182088e+01 1.3215466115299950e+01 6.1818470328666040e+00 -56 -10 123
140 1 4.3204454317703336e+00 1.7674212898725926e+01 3.8348335804587270e+00 -63 30 -7
390 1 1.7790742742425103e+01 1.7002412661284602e+01 7.9960012292424922e+00 -11 -40 -20
315 1 1.4099164536177551e+00 1.3884226231645641e+01 2.6735059501958482e+00 -70 94 93
464 1 3.1795524786778859e+00 1.4986350145099337e+01 6.7647370457303087e+00 8 17 -21
46 1 4.4288744729783636e+00 1.4407706560376425e+01 3.0263150633785845e+00 37 -6 54
241 1 1.7949761334246084e+01 2.3905888086214127e+01 2.2499157979860485e+00 2 -114 -24
402 1 2.1439713607516659e+01 2.0020670682466147e+01 8.2207037590041683e+00 41 51 -29
264 1 1.6906915581096861e+01 1.6216221799416154e+01 2.2008105973115732e-01 -104 30 45
434 1 9.6723133288591090e-01 1.9436062447971786e+01 1.4236202357246233e+01 47 -28 -80
106 1 3.6703697027358722e+00 2.4007537693523368e+01 1.6378729140473183e+01 13 -17 -9
91 1 4.1720884134093392e+00 2.1801313244886785e+01 9.5495459656327615e+00 -20 5 29
305 1 1.1033383048625094e+01 1.2889191083290227e+01 1.0001069405372279e+01 12 96 35
102 1 1.6890658225518052e+01 2.4372116368574893e+01 1.4243371776704885e+01 20 -14 25
268 1 9.5083713037780875e+00 2.0304850521586857e+01 1.4809342041832688e+01 -124 7 -9
367 1 9.1543089247290688e+00 1.7787959476489732e+01 9.4718291410250366e+00 2 5 65
431 1 1.3307698984325760e+00 2.2435639635466721e+01 1.0555448563445591e+01 -71 -33 -26
320 1 2.2935945379628087e+01 2.0245453884263156e+01 1.5506333216183574e+01 22 95 46
14 1 2.3283802582044139e+01 2.4724586342984068e+01 1.4209558269733181e+01 51 -31 27
196 1 1.1119070766062499e+01 2.1175972477977446e+01 1.2844468856290879e+01 13 18 14
218 1 1.6089631159748290e+01 1.9693338378209681e+01 1.3301880533236400e+01 -55 -14 -28