LAMMPS data file via write_data, version 4 Jan 2019, timestep = 5000000

512 atoms
1 atom types

5.8621091616791077e-02 2.4776378908385173e+01 xlo xhi
5.8621091616791077e-02 2.4776378908385173e+01 ylo yhi
5.8621091616791077e-02 2.4776378908385173e+01 zlo zhi

Masses

1 18.0153

Atoms # atomic

466 1 2.3346278365810065e+01 6.6669785022561596e+00 2.1275523958660476e+00 110 -26 -17
146 1 2.2776034257400077e+01 3.5550503422645243e+00 2.5575531304523231e+00 0 -15 11
239 1 2.4980344680012748e-01 9.1725473800251827e+00 2.3185076850736066e+00 49 -36 9
61 1 1.0888019167343373e+01 3.8457399402071495e+00 4.7754529244864878e+00 96 -48 90
447 1 1.4126729970770249e+01 2.6979437597387954e+00 7.6844682937534847e-01 13 -114 20
256 1 3.4549240939394782e-01 2.3878145972000939e+00 1.9843542625970005e+00 39 18 -28
332 1 1.3412655263154683e+01 1.0478829587044771e+01 6.9639919977400409e+00 26 -17 -95
295 1 8.0069876319949067e+00 1.2030198559541661e+01 6.8110645034600417e+00 -41 -8 2
303 1 5.3564967300743751e+00 7.4731180372486650e+00 1.5019740897895688e+00 19 -2 201
66 1 2.3502496152001910e+01 7.8248820943581672e+00 7.9145948055831576e+00 -25 31 -39
417 1 9.0606803186862663e+00 1.5644326185001345e+00 4.5228587545716650e+00 16 -3 -14
159 1 1.1891025754504732e+01 3.5643278241918668e+00 7.2919199447818075e+00 -49 58 105
371 1 2.1424412505811503e+01 9.4168135446499051e+00 3.2258875031882659e+00 -78 33 -58
77 1 2.0998659729655841e+01 3.4438521450114963e+00 7.8739849092294625e+00 48 -37 13
31 1 3.1446125092030450e+00 9.3213594217659175e+00 1.3725626297969438e+00 -50 0 132
147 1 1.1672572214116474e+01 1.0517584845825018e+01 2.6291046918140384e+00 -31 19 97
425 1 2.5906768461566859e-01 5.6929052117938825e+00 4.2078379065692992e+00 74 35 -15
104 1 1.8599290022890038e+01 1.0063979108330228e+01 3.4299902609758313e+00 84 26 -17
316 1 1.5725616677691903e+01 5.1169483041194512e+00 4.4491853231111120e+00 31 121 78
325 1 4.2739252560963575e-01 3.5863699195914989e+00 7.2633681120873845e+00 -76 30 24
12 1 4.7871827394544288e+00 1.6337099174029865e+00 2.9376142325369305e+00 53 -43 59
96 1 9.6093594362825883e+00 6.1684238375940925e+00 4.1140837427208998e+00 226 50 64
469 1 2.1653145023593773e+01 2.9302974729756861e+00 4.8295306057864984e+00 33 9 10
30 1 3.2515089197154778e+00 1.0608247935085661e+01 3.8748428083261368e+00 -81 6 -19
389 1 5.1020956149325905e+00 1.1167213676987229e+01 4.6784587460972793e-01 14 76 -25
64 1 1.8129978134179098e+01 4.1352016026396674e+00 5.1414624162662959e+00 -33 62 6
209 1 7.6837957602105220e+00 3.7535880633740351e+00 2.8555173771187801e+00 -8 18 -42
407 1 9.9380293953649499e+00 1.1613014140539789e+01 4.5109126857923904e-01 21 2 63
150 1 7.6879959810758951e+00 5.4625738307551837e+00 7.3259317377393200e+00 81 -27 70
381 1 1.5396855768594639e+01 6.3846150884156971e+00 2.0828301794178774e+00 20 -111 36
84 1 2.3365704283958301e+01 1.1304454743944770e+01 1.6250709315456575e+00 39 67 26
249 1 9.3047084564245104e+00 3.1369135186200281e+00 8.1024073341805529e+00 -78 -50 -37
91 1 1.3124240574496937e+01 7.9832576920141065e+00 6.3644074672584310e+00 -21 3 23
358 1 1.6811795720418914e+01 9.0814911446611202e+00 1.8697589282621248e+00 -31 90 41
46 1 1.5988261173698618e+01 1.8031482465783022e+00 6.7312126518473008e+00 40 -4 61
133 1 1.7926860456965329e+01 3.3684258559843268e+00 8.0933758395302906e+00 -44 74 -39
455 1 2.4119821759675716e+01 6.5889817357072344e-01 4.9345246668991338e+00 51 103 24
348 1 2.0614749466941269e+01 6.6702384569534914e+00 1.9685099113558289e+00 -1 -18 21
388 1 1.5926770759881245e+01 1.1279643164039634e+01 6.4013928614011544e+00 75 1 27
237 1 2.3158537620047184e+01 5.3555334838822120e+00 6.4106731546134501e+00 18 -37 -19
511 1 7.1839999991392611e+00 1.1597140307258270e+01 3.1340916084023398e+00 58 11 92
148 1 2.2271473328291633e+00 7.0734975922979988e+00 5.4461012784457408e+00 -47 58 67
229 1 5.0763045102607300e+00 6.7576036704359446e+00 7.5070174706443469e+00 45 25 15
238 1 1.5574916655759694e+01 6.9008597111676648e+00 6.3586536337814463e+00 37 7 -19
233 1 2.0160716823940795e+01 5.5162893898900558e+00 4.4744309856394180e+00 -12 -35 -31
449 1 1.7422325418433471e+00 1.9138692392814554e+00 5.4830662258758158e+00 -62 78 21
335 1 8.8006371155688026e+00 9.2479300002322855e+00 3.0776815836519580e+00 14 -24 85
177 1 4.5731661914481503e+00 6.2023312010816278e+00 3.9041405171216605e+00 -17 -39 37
131 1 1.3097146086612879e+01 6.7088291240139490e+00 1.7875247410805277e+00 13 -35 -8
189 1 4.3223305608140947e+00 4.5763136994195124e+00 1.1643635034536710e+00 124 -49 -33
24 1 1.7121559642357475e+01 9.0418248094435913e+00 5.4924908097915424e+00 46 -53 71
379 1 8.6642962916863944e+00 5.5291695657637092e+00 3.4539834931105323e-01 142 -18 54
462 1 7.5864046066858775e+00 1.0912947936991828e+00 7.4282062234045991e+00 -65 20 42
103 1 1.1327078982156600e+01 1.2229546129086691e+01 8.1918528545179736e+00 -13 34 -51
402 1 1.1242023258475500e+01 6.4838820437899649e+00 7.7777596614323379e+00 44 51 -24
245 1 7.3653852660483956e+00 9.5209890304060085e+00 5.5192507835578093e+00 -24 0 101
392 1 1.9878606242476678e+01 8.0790099013020225e+00 5.8219574518762149e+00 28 17 -60
201 1 2.2720787924907938e+01 1.2176456576237607e+01 6.2523687483831534e+00 -88 -61 37
470 1 2.4306761974637743e+00 4.0351949223551991e+00 3.5331822516136979e+00 24 -34 -135
98 1 7.7374247062575507e-01 1.0243493099446239e+01 7.9668894443596558e+00 65 81 -4
297 1 1.4433107861893715e+01 1.1311444746691715e+01 2.0973824157965262e+00 11 25 -16
423 1 1.1987245399687025e+01 8.0301603530972496e+00 3.7397116607917469e+00 -4 5 58
52 1 1.8815567442877878e+01 2.2998709460155498e+00 3.5141569823918721e+00 96 -98 143
278 1 5.9800584085771140e+00 4.2791900245211458e+00 5.3332230940141301e+00 -88 -100 50
460 1 4.0921830039026785e+00 2.7276761701941670e+00 7.2853965011906974e+00 -111 112 38
244 1 1.3995556114377770e+01 3.2997321204799261e+00 5.1548002592673772e+00 -38 71 -1
400 1 5.6036344724022040e+00 2.3296002076610453e-01 5.3992559692335522e+00 56 35 -28
196 1 9.4935386009934275e-01 9.5400769214400629e+00 5.1393358514537821e+00 7 19 11
391 1 7.9798592591174584e+00 8.0578362964620567e+00 8.4050435202022544e-01 -89 -22 -7
69 1 9.0308863587976269e+00 7.3871006776511612e+00 6.1916930722616064e+00 -28 -5 -7
380 1 4.7926717211730478e+00 9.1718885317702998e+00 5.6497733505480907e+00 -15 68 59
168 1 1.2145176267377332e+01 4.0824133600291024e+00 2.2489406122797653e+00 101 -49 -63
257 1 2.4847721737899811e+00 5.2786205960602528e+00 7.9367823359451428e+00 -28 24 46
457 1 1.7896090981186802e+01 2.6475963126112370e+00 1.0992878579788607e+00 -30 -45 72
367 1 2.2736105936600985e+01 9.8021212555951216e+00 5.5065377210873487e+00 -3 4 65
396 1 1.5811761173505188e+01 1.2604686085986836e+00 3.5838243080892904e+00 -10 -6 27
157 1 1.6184346057929837e+01 4.5145689780694944e+00 4.0291090161031495e-01 -4 -16 57
220 1 1.1936671307434993e+01 1.2311936968498724e+01 4.9346383947044483e+00 59 -5 10
26 1 6.6691476159879617e+00 2.4000778147435691e+00 6.2647964301550574e-01 -15 19 75
25 1 3.8048960078700720e+00 9.8954552806527545e+00 8.2105109875362334e+00 63 -87 -48
161 1 1.9109278759766305e+01 7.9546184525595933e+00 4.4689735048068169e-01 33 -39 47
478 1 2.0342537818592156e+01 4.1728139121710530e+00 7.1690488752558013e-01 30 -4 39
222 1 9.4096024133428653e+00 2.9718663691803462e+00 1.0734988270865912e+01 16 57 51
401 1 2.0581507738314833e+00 2.1255099404931279e+00 9.9314711287441391e+00 27 5 21
320 1 1.4848265676275288e+01 9.8977685705439669e+00 1.5106410951297796e+01 28 96 54
38 1 2.0118154223515866e+01 9.0130554930791151e-01 1.6190185077185738e+01 -34 53 -27
87 1 1.0102796880949004e+01 5.4251607442787169e+00 1.1912649129498314e+01 -9 38 81
268 1 5.8298173532643718e+00 1.6523687826269435e+00 9.3546042784512959e+00 -128 11 -8
81 1 3.5494581200846556e+00 4.4918375616378183e+00 1.0744529068642743e+01 33 80 -23
451 1 2.5397637981058807e-01 6.1609521245089516e+00 9.5047700729266040e+00 65 35 -22
181 1 9.0813763804179395e+00 7.4227149335039728e+00 1.5855394251947621e+01 84 68 -45
393 1 1.5259172169043088e+01 1.1713313881296950e+01 1.1366908946179835e+01 89 38 -73
267 1 1.9657633406823962e+01 5.7403155169355653e+00 1.2086098635333340e+01 -100 63 -57
194 1 1.9649220460355522e+01 1.9804310176091202e+00 1.2787177687582565e+01 36 112 10
156 1 7.2613394325705185e+00 1.2301613758016931e+01 1.3986758179454673e+01 38 23 -18
485 1 1.6882465789747975e+01 5.9648563117584565e+00 8.6009073806929202e+00 -22 0 78
349 1 1.5688137954763391e+01 8.0744525818707853e+00 1.0333837637414893e+01 -5 18 52
275 1 6.8201618329202764e+00 9.7662875993772538e+00 1.4612869954449131e+01 29 -15 32
192 1 3.5078122727754217e+00 4.7471273591644465e+00 1.4376464931156537e+01 -69 69 -63
105 1 1.5583894201562490e+01 1.2138669369888753e+00 1.3202151861992986e+01 6 86 9
255 1 3.1541781397243933e+00 7.2810914612936806e+00 1.3616506988972359e+01 -119 4 69
304 1 1.8172860165670571e+01 2.6888499221477717e+00 1.5650716972352283e+01 -25 -52 121
397 1 7.3806754079290213e+00 5.3159698940514861e+00 1.5688999020555032e+01 -42 40 -42
160 1 1.1260450798433965e+01 8.9845032133466383e+00 1.2323476190603534e+01 -15 36 43
176 1 1.2959587910843718e+01 1.5671079837833477e+00 1.6336683073873004e+01 -103 -104 -32
28 1 2.2954515118580836e+01 7.7264768202347875e+00 1.2297254529862039e+01 24 38 14
280 1 2.0882535661456878e+01 1.5543269577042276e+00 1.0567079217427761e+01 26 -35 159
369 1 2.0958745019622654e+01 1.0777031848546745e+01 1.0287141487010929e+01 5 64 7
100 1 1.8955976491516267e+01 7.6280736857332361e+00 8.3482461016741940e+00 51 -130 -8
414 1 1.8060361589907153e+01 1.0173576279717118e+01 9.7600871942919518e+00 104 19 53
420 1 6.7830263743128159e+00 1.0256302052001303e+01 1.1285925190911570e+01 29 -36 123
512 1 1.4166711146136691e+01 2.3670964140543806e+00 8.7694998666895927e+00 -21 -31 96
85 1 5.1256444404643862e+00 1.1933575243516039e+01 9.8969968536779707e+00 22 44 -103
9 1 1.3518785730633919e+01 7.3410719073544097e+00 1.5752764507217892e+01 -33 44 17
108 1 2.3758809110073770e+01 1.1325072518876212e+01 1.6229958445883973e+01 43 -37 30
190 1 1.3507536656970355e+01 1.0054641651441445e+01 9.5552123295981239e+00 105 93 26
126 1 2.0431161911972559e+01 5.7813930087028638e+00 9.7048762612184731e+00 -25 -34 -45
300 1 7.5208658365212528e+00 6.3133636529940054e+00 1.0269535229683116e+01 -83 65 30
306 1 1.6256942523642792e+01 8.4425079563640111e+00 1.3185927753233575e+01 -10 62 -63
471 1 8.7624190259271799e+00 1.0714826212834078e+01 9.3601124420214372e+00 -80 -15 22
440 1 2.3927738731547706e+01 4.9468226351748790e+00 1.3823227781153848e+01 -25 -29 119
272 1 8.8776854024876943e+00 7.7190693416228762e-01 1.2111317461087108e+01 -24 1 103
180 1 1.1260217238684479e+01 6.3982123867215348e+00 1.4537758851915239e+01 4 292 -19
240 1 1.9530167558156542e+01 5.6685330872799859e+00 1.5750459954828573e+01 -224 136 65
376 1 1.2037818446025220e+01 2.3066471141068621e+00 1.0729830562548807e+01 -84 -4 -11
22 1 1.5482197829552865e+01 4.3515522438401177e+00 1.0252624974925398e+01 -10 -77 71
13 1 1.3026420033843563e+01 4.9051858612596906e+00 1.1320241982272291e+01 142 -11 63
453 1 8.7208985379518147e+00 8.3523426177980227e+00 1.2516586170920878e+01 55 3 5
341 1 2.3882220306125639e+01 2.1935192669533445e+00 9.2978822255128950e+00 38 -35 77
63 1 1.5602622145271130e+00 3.5969069013924173e+00 1.2604437192075826e+01 -6 12 -107
264 1 2.1437985191633395e+01 4.1534503621748309e+00 1.4091077109070053e+01 -104 32 41
266 1 5.2307032420552657e+00 8.2223736680370685e+00 1.0296397974291999e+01 27 -57 12
286 1 1.5153987463230223e+01 5.2107602646162068e+00 1.6161543735298181e+01 51 -6 6
322 1 1.9265580975372836e+00 1.4371379365115047e+00 1.4853786217631230e+01 25 56 -11
282 1 1.0371457838472078e+00 1.1194718134121757e+01 1.1490934876382207e+01 25 24 81
329 1 5.1003758495725193e-01 8.6852777087359847e+00 1.0986198617584225e+01 1 -121 -69
437 1 1.2249158987495623e+01 1.0158229857626536e+01 1.4418562812025568e+01 14 10 -114
463 1 1.8341522494020225e+01 1.0427797143972755e+01 1.2487419444766756e+01 -55 34 -40
120 1 4.1820905189409435e-01 1.0386017570331799e+01 1.3999350244387049e+01 -5 -69 68
23 1 1.1545712615500477e+01 3.5704691120601613e+00 1.5213610042690096e+01 61 33 12
124 1 1.4180582756942064e+01 3.9863485539409989e+00 1.3762963363001152e+01 -47 153 -27
136 1 1.7076788037831797e+01 5.9715911494464695e+00 1.4797388647764748e+01 29 -78 113
409 1 4.3640211691573185e+00 9.0431645010789108e+00 1.4691877765977797e+01 -65 84 69
347 1 6.1964319673820976e+00 3.9893187721376586e+00 1.1207406894060240e+01 -127 2 -5
309 1 2.1847395344183056e+01 8.2555781728516386e+00 9.9277931355612363e+00 61 56 -48
217 1 2.9180963767314374e+00 7.2032204395074775e+00 1.1162961783870058e+01 92 -46 77
333 1 2.2004817719048894e+01 1.0085790643741245e+01 1.3597100580152773e+01 25 31 36
486 1 2.3052639221359875e+01 4.4617116211975603e+00 1.0828042758115627e+01 54 12 -14
483 1 1.9573486252192239e+01 8.3783164723983834e+00 1.3900617299705470e+01 40 71 24
284 1 1.1249984969684190e+01 1.1603573314958146e+01 1.1086111393728528e+01 -87 -76 -5
75 1 2.8411427393726396e+00 1.1293818854751326e+01 1.4648541791031349e+01 0 38 13
450 1 5.8998319778728101e+00 3.5251273291942398e+00 1.4093095014936665e+01 122 -70 14
472 1 1.0938485773459364e+01 2.6637117862305504e-01 1.4232168544345173e+01 20 -29 71
74 1 1.5825604950594551e+01 1.2211741636744036e+00 1.5879179776071128e+01 10 56 -16
123 1 2.4218836713389564e+01 8.5832638609783041e-01 1.5560424512089741e+01 -74 5 1
186 1 1.2201809642419313e+01 7.3837253809668395e+00 9.7437920876108368e+00 -33 169 29
18 1 6.3827734926856508e+00 5.6109391301599854e-01 1.3670955250632087e+01 56 63 39
164 1 5.8302837793797857e-01 7.7869797867282768e+00 1.4339604803577464e+01 66 18 141
45 1 1.7490950675117020e+01 3.8928818341510443e+00 1.2518653423510607e+01 -1 80 -67
208 1 1.9483708126576147e+01 5.8701255957748955e-01 8.3321386821101093e+00 25 74 -5
441 1 1.2039936561520543e+01 1.7556714764193857e+00 1.8877052936323921e+01 -11 -68 -13
387 1 4.0876013774612403e+00 9.1435446416915571e+00 2.1757583188241327e+01 80 -26 121
117 1 1.9751496847379492e+01 5.8555127849968063e+00 2.2842055843127078e+01 47 37 86
324 1 1.0165909346746584e+01 6.1356776349681947e+00 2.0717309952310053e+01 4 -53 92
395 1 5.7328079421839586e+00 9.6073582525892842e+00 1.8544135602622283e+01 -28 37 -44
428 1 1.1152925642037451e+01 9.8287487212652831e+00 1.6805548355357097e+01 58 -10 -10
507 1 8.0556752244012237e+00 1.0324476559015396e+01 1.6854425920716309e+01 -70 20 -12
213 1 1.7883353669405928e+01 2.2746866408788624e+00 2.2151180152631085e+01 -56 -8 14
242 1 1.4030619395270964e+01 8.9153798452154565e+00 1.9900050242323239e+01 3 -8 -52
293 1 2.0409210123673709e+01 4.1428043415144797e+00 1.8813685529567969e+01 0 117 53
287 1 1.6767226814688303e+00 2.2430263559550010e+00 2.2375982985867076e+01 -9 1 -1
274 1 5.3976485577248496e+00 2.1589915450374155e+00 2.1523086909070166e+01 -49 36 16
364 1 1.9059778330013948e+01 8.1377467366179257e+00 2.0535497367539918e+01 95 18 -20
20 1 2.2720688828891141e+01 5.0743743209333081e+00 2.1926370371064678e+01 132 32 31
173 1 1.1294058350984606e+01 4.2928450178143454e+00 1.7925139320667107e+01 35 55 2
135 1 1.8637218463748304e+01 1.1353518237429640e+01 1.6677380850613176e+01 -7 54 -68
144 1 1.8301522332221154e+01 1.2092521372822226e+01 2.3179051241232784e+01 -22 42 38
39 1 1.6593808731129556e+01 1.0105966392668993e+01 2.3706859434671216e+01 5 38 39
113 1 2.7299466785360447e+00 4.2362721191950072e+00 2.1025870978757908e+01 -43 20 94
11 1 3.2964814545832857e+00 1.1618590044672365e+01 2.2356746433097491e+01 15 72 -51
211 1 2.0249250524241162e+01 1.0394788203284348e+01 2.1278578602354777e+01 -39 8 -22
184 1 4.0142527867702560e+00 6.4489181089554073e+00 2.3671070511189299e+01 3 15 44
235 1 2.3091010196340612e+01 1.0094632301943992e+01 1.9407226848685795e+01 17 -58 151
68 1 4.0127553946227996e+00 8.4275491490584500e+00 1.7283035963437086e+01 -5 -12 10
254 1 1.0368495094210362e+01 1.1209574544799779e+00 2.3926110760627317e+01 40 95 41
128 1 2.2712417685275916e+00 3.7889462180556586e+00 1.6623255025996365e+01 19 9 -22
438 1 2.3696548174596344e+01 9.5080572313381531e+00 2.3500535859041278e+01 29 -2 -52
422 1 1.7177472028887074e+01 5.1307448072512321e+00 2.1681491469004904e+01 -11 66 62
232 1 1.5545149732194826e+01 5.2692296281899180e+00 1.8883355397254213e+01 99 33 25
406 1 2.3700123186922184e+01 1.1552006638159009e+01 2.1773887056272841e+01 44 152 14
187 1 3.6974793922925584e+00 5.3765538830089055e-01 2.3134361092650330e+01 -3 21 -13
112 1 1.6858082797131189e+01 1.2349658075593583e+01 1.9199682967286179e+01 32 77 -33
317 1 1.2906458717974081e+01 5.4579729032276241e+00 1.9961508753349086e+01 95 -40 -33
492 1 7.2191105892208762e+00 1.1170307285397824e+01 2.2004803760753667e+01 3 -14 41
171 1 1.3012547758781649e+01 1.1184726545437263e+01 2.0881109597551166e+01 -39 42 11
115 1 1.1061650309856159e+01 3.8286687619548787e+00 2.4306279409456224e+01 89 -152 26
10 1 1.5786281055858085e+00 8.2859835180401156e+00 1.8657800241002867e+01 -87 59 -20
468 1 1.5271820577790175e+01 1.0224786913974187e+01 1.8263681902765711e+01 58 3 -54
89 1 6.5704033616172044e+00 5.8411967914912930e+00 1.9419441967052919e+01 -13 13 -183
298 1 1.5126411370169719e+00 7.4892332117087577e+00 2.1210691059652284e+01 8 39 18
170 1 2.3585552472717993e+01 7.8197702213853502e+00 2.1122186863360788e+01 7 46 -12
292 1 1.7014939434339176e+01 7.9767896334452537e+00 1.8671200422232012e+01 -22 24 55
328 1 1.4982187743325479e+01 2.1539745930399001e+00 2.2612528557748945e+01 67 76 -22
291 1 2.3087190757810006e+01 2.6668736659006131e+00 2.4074344447902924e+01 37 105 75
88 1 2.1270323894187584e+01 6.4228074379255862e+00 1.9189212155374250e+01 -13 16 59
202 1 2.1832149947461225e+01 1.8884048862986762e+00 1.9650756054110353e+01 30 99 -10
314 1 2.2052847165384414e+01 8.2384552986597139e+00 1.7093642895322063e+01 -16 27 -1
374 1 8.7159368452323758e+00 3.8595230060115298e+00 2.1509325520739203e+01 -12 46 -7
92 1 1.3911970966376298e+01 1.0273301170089681e+01 2.4073136287432128e+01 -40 53 -98
152 1 9.2988719887520812e+00 1.0198197344334380e+01 2.0252022918332194e+01 -53 -152 -21
500 1 1.7478205126562329e+01 1.4030753940690786e+00 1.9711159109252414e+01 68 -72 59
228 1 1.5542749826432066e+01 7.7340803772848767e+00 2.2139642999455532e+01 -38 25 15
489 1 2.4511618742433804e+01 1.4057620118087866e+00 1.9747002223054572e+01 79 181 -42
151 1 2.0826404169345032e+01 2.3218711686242277e+00 2.2293442504765451e+01 -38 -30 -17
490 1 8.0844811269723706e+00 1.0724170726138551e+00 1.7640710930091998e+01 15 -95 -3
215 1 1.7811763239044133e+01 3.5141569465513172e+00 1.7965522944199506e+01 2 -136 -38
93 1 4.8197060197516262e+00 5.9964778606034113e+00 1.7151247857055729e+01 -37 -20 19
424 1 1.6140714953499304e+00 7.6292422503397948e+00 2.4028902320189800e+01 45 11 -29
270 1 1.3243078365361962e+01 7.5929509333571872e+00 2.3792715880388783e+01 18 121 106
121 1 7.2702136381429527e-01 1.0854548628703096e+01 1.8332756115864200e+01 -5 3 14
505 1 1.0908927908777759e+01 1.0261326639644846e+01 2.2807315323519013e+01 -4 22 -52
497 1 2.4715813148861486e+01 4.5241954868927836e+00 2.0047702596996793e+01 -13 26 19
41 1 2.0764871431968103e+01 1.0000434865172760e+01 2.4217819348985721e+01 78 -9 43
365 1 8.9887894574108369e+00 1.2451117368031535e+00 2.1370476486979086e+01 -1 74 -36
234 1 9.0181701844088700e+00 7.5609506547024541e+00 1.8998236337050940e+01 74 -8 19
60 1 1.3785508759348282e+01 4.8436210406916969e+00 2.2714831349295579e+01 -66 -14 57
19 1 8.5875845247761902e+00 4.0514750607716872e+00 1.8346184417472358e+01 8 60 75
412 1 6.5752135082957883e+00 4.3804862234796742e+00 2.3241870208220980e+01 -18 20 -68
319 1 3.9214063082327937e+00 3.5308204103348060e+00 1.8862218349194791e+01 -35 -3 43
212 1 5.2757083320544274e+00 1.1630694395575301e+00 1.8647141888683656e+01 -16 -47 -33
227 1 1.4750174896240175e+01 2.4436607287641552e+00 1.9868144378018620e+01 135 116 -10
338 1 6.2543052144482543e+00 8.2766704497730785e+00 2.0935400329549310e+01 -10 0 44
33 1 1.2109947782031337e+01 7.6332134590076572e+00 1.8105265845201437e+01 -96 -42 -21
461 1 2.4588619932354696e+01 4.3741257959657718e+00 1.7409946732559128e+01 12 23 -10
5 1 2.4480776855229543e+01 5.5870933165362624e+00 2.4422698036837467e+01 32 42 -7
307 1 1.0540189030782765e+01 7.6677655654925836e+00 2.3349079111501609e+01 -49 100 -16
476 1 2.1098141850695647e+01 1.1970452924175792e+01 1.7259648809934646e+01 -41 -1 -60
510 1 2.4603830292325078e+01 6.9130015756643326e+00 1.7000675848479197e+01 -62 137 38
315 1 1.7742595470551997e+01 3.1690124835362532e-01 2.4280932759289286e+01 -71 93 82
411 1 1.2076349692419504e+01 1.1597360232603931e+01 1.8385799999927251e+01 11 112 155
199 1 1.9341785458544607e+01 8.8900328974260034e+00 1.6982339452225901e+01 24 85 -22
435 1 4.7930613199182153e+00 1.2289756456897187e+01 1.9022499621780121e+01 -49 -11 -16
491 1 7.4332931560268261e+00 1.0435079352796954e+01 2.4507692877287461e+01 -32 -23 -18
35 1 1.3645470565319684e+00 1.1261030057258257e+01 2.4182077746102721e+01 -41 18 -44
493 1 1.9613487305316650e+00 3.6597633669598544e+00 2.4746734686587715e+01 -39 83 47
158 1 2.2518904395690782e+01 3.0294001049566277e+00 1.6642865851240785e+01 -63 50 -80
342 1 2.0114622077103107e+01 1.6193933656854554e+01 1.1847416238622208e+00 22 -17 10
359 1 1.5714223655997685e+01 1.5376694719005055e+01 1.3561513496089443e+00 -43 53 0
16 1 6.7056680668290607e+00 1.5375804214932344e+01 3.5722559066878374e+00 146 80 0
165 1 5.3480495452677923e-01 2.3009127959927781e+01 5.1951298068721332e+00 83 -20 101
2 1 2.1175013776935727e+00 1.7171896523681092e+01 6.3488364581075016e+00 -42 5 -12
487 1 9.5012876961600181e+00 1.3271392128151776e+01 5.0117461390861200e+00 26 45 -4
313 1 7.3828205131832485e+00 2.2880088308817356e+01 4.5241837072478512e+00 -51 37 44
32 1 2.0841698569846706e+01 2.1813180654674433e+01 6.6311086987370906e+00 -43 119 -46
355 1 1.7781570712047248e+01 1.2452097251172543e+01 8.0858771092249189e+00 -28 -2 70
413 1 1.9371067318729345e+01 1.2881648855064656e+01 3.1092817763164931e+00 -23 -5 -25
6 1 8.8738807995604354e+00 2.1526611387196354e+01 7.9918961687991641e-01 92 21 -33
495 1 1.5138646481049491e+00 1.3898506716589447e+01 5.8952594613092453e+00 -28 17 -65
49 1 1.1036476100773811e+01 2.0319115397672874e+01 4.7541342120880374e+00 -15 31 -23
273 1 2.3057408791512131e+01 1.6104983056757007e+01 2.8719987286867527e-01 79 151 113
54 1 1.8020558790244500e+01 1.9399648528802366e+01 3.7796993452941754e+00 -4 20 42
197 1 1.3663989918019267e+01 1.9722356923602241e+01 4.7857011617575340e+00 9 29 59
83 1 2.2193508034799187e+01 1.9865387380114861e+01 2.3063274390685873e+00 40 6 3
354 1 7.1935055819956906e-02 1.2936524121668031e+01 8.0092812950685293e+00 2 53 21
477 1 1.4178204220558202e+01 2.1818302225478938e+01 6.5100876126019003e-01 44 -5 37
65 1 1.0584443251597751e+01 1.8617485096945551e+01 2.6676569620012742e+00 -32 71 -13
14 1 9.1656543081630126e-01 2.0687594762634689e+01 3.2618974951067548e-01 53 -29 32
247 1 5.2746115407205787e+00 2.2430800743641228e+01 7.4414194602169070e-01 19 -15 2
179 1 1.5322851292673699e+01 2.4592492564268149e+01 1.0464043997739971e+00 -76 -72 -37
362 1 2.2890951099049211e+01 2.1554913068056187e+01 4.6123742645944290e+00 -59 -26 -68
210 1 2.2846156356601526e+01 2.4597357957815667e+01 7.5426307864644055e+00 -6 7 44
132 1 5.9485667993074074e+00 2.1156578047455326e+01 3.0240421905234132e+00 -41 -2 -69
331 1 2.0145670531573970e+01 1.2806072016250342e+01 3.6043205738085288e-01 38 20 -11
271 1 9.3060155962896722e+00 2.3714925844042050e+01 3.0289659143644374e+00 39 27 -55
259 1 9.4052518594110950e+00 1.5998886629698262e+01 6.3066616689219979e+00 9 45 35
444 1 3.8574866934026129e+00 2.1113399367800696e+01 4.7792248376828406e+00 8 -29 9
353 1 7.5423536309720536e+00 2.4671323804967699e+01 1.0331144567828029e-01 -167 60 96
99 1 1.5650573214310675e+01 2.3449126620444837e+01 6.4665030341113185e+00 3 -12 39
458 1 9.4695674626767907e+00 1.9943913346459560e+01 6.9841447417646600e+00 -39 51 -3
308 1 7.7688287310799167e+00 1.7908030219955194e+01 4.7911181715299271e+00 48 108 71
223 1 1.1234323768780280e+01 1.6161081742365525e+01 3.6455251612338153e+00 105 30 11
253 1 2.3678910134405371e+01 1.7808141122255826e+01 3.1433878356888685e+00 -5 13 1
503 1 2.4538341716377772e+01 2.4307899746293742e+01 1.8127927159357407e+00 -15 11 26
43 1 1.2405388133210502e+01 2.4734292064085558e+01 1.5632160106103059e+00 -5 0 19
378 1 2.0614454101594426e+01 1.6133497560412401e+01 6.5070398688162072e+00 7 -5 -73
279 1 1.7346825590141307e+01 2.2626541651063476e+01 1.9007429480327354e+00 -44 156 46
137 1 2.1718440989073784e+01 1.5890339289947244e+01 3.7262477295710994e+00 0 -20 61
326 1 1.4427525008864674e+01 2.0104250104408592e+01 7.3942623159241334e+00 44 130 -3
363 1 5.1690474142382907e+00 1.4150701157181091e+01 7.4844945782306782e-01 -17 -30 24
356 1 9.0561145831236733e-01 1.8404356236291527e+01 8.5366279352975638e-01 -71 -1 4
352 1 2.2908709874329993e+01 1.3440142733263160e+01 3.5908158018250456e+00 44 -37 -72
62 1 1.8449470209096748e+00 2.2579001745687783e+01 2.4795743420785876e+00 74 -37 -51
172 1 1.4598937516372846e+01 1.5478405301568605e+01 7.2136679232710019e+00 -34 -105 40
243 1 1.4526782948357578e+01 1.7825085200829513e+01 1.4034258082748852e+00 6 -27 -13
508 1 8.8693740163948291e+00 1.3856362703022212e+01 2.2745660107874008e+00 22 21 -82
373 1 4.3557188211582707e+00 1.6868685536761326e+01 2.7432624743781480e+00 53 41 -46
385 1 7.8554070521386485e+00 1.9103677407753345e+01 2.4216669271531677e+00 44 29 46
140 1 5.9724684947854927e+00 1.3615893576363526e+01 5.5672557825183340e+00 -64 29 -10
125 1 1.3641347387330768e+01 1.7060036415912549e+01 4.3070711538354827e+00 -62 -31 -8
138 1 1.1563819951081511e+01 2.4324432900991560e+01 6.7355451764435781e+00 191 26 20
351 1 1.4095113647813564e+01 1.3848591240011149e+01 2.8392773677278895e+00 26 -24 -68
432 1 7.8353779720985512e+00 2.2025642328026130e+01 7.0785476523762139e+00 29 -64 13
310 1 1.9877283832306738e+01 1.8854505490367814e+01 1.8120798482967742e+00 -2 -1 4
139 1 1.8114927834250942e+01 1.7232752327144610e+01 5.0274906478968004e+00 -16 -7 -32
185 1 5.3474332650949092e+00 2.0907974150019399e+01 8.0626597371108684e+00 3 22 -16
473 1 3.8132898682379026e+00 1.4277346253986829e+01 7.1576509760451197e+00 -42 -33 67
430 1 1.9901527910292025e+01 2.3286997651245734e+01 7.2736602665951700e-01 55 51 11
443 1 1.6365175441772188e+01 1.7528138281666266e+01 7.1291028375019447e+00 -106 36 0
408 1 2.0306027213233889e+01 2.4378185177480034e+01 5.0540985285382298e+00 -142 36 53
219 1 1.8699159393708179e+01 2.0456613753172142e+01 6.3435601714388454e+00 -33 -27 -91
269 1 1.4390291696057762e+01 2.3410084009299183e+01 4.0124527544456736e+00 15 -39 -1
86 1 1.1832211541481099e+01 2.3082234343528327e+01 4.1707986210599657e+00 -35 -58 83
221 1 1.9422073621792492e+01 1.3377187931136564e+01 5.8151729183971472e+00 -5 6 31
429 1 1.8115302621766254e+01 2.2905854292268927e+01 4.4774101580009704e+00 -38 -30 48
260 1 2.3939602962302487e+01 1.8983389128027973e+01 5.4204081912115472e+00 -33 8 59
394 1 1.1670002242781308e+01 1.4404139937158558e+01 1.5725656587047001e+00 -105 2 -30
94 1 1.7945183183392981e+00 1.6916323108048012e+01 3.5367273647903446e+00 -62 29 47
7 1 3.1479256729961698e+00 2.4632523456575491e+01 1.3509231889430726e+00 57 7 48
344 1 2.3977525889446788e+01 1.5852543101533479e+01 6.0387322598383033e+00 38 -40 1
372 1 1.7667774399118217e+00 1.9597535536870289e+01 6.1400857407468123e+00 25 -11 14
480 1 4.8481435151144394e+00 1.6647733779473867e+01 7.5013527949637506e+00 12 -46 89
134 1 5.1565309561485355e+00 1.8377467156212923e+01 5.1369783870525669e+00 -78 -17 12
399 1 1.5298285674531549e+01 2.0228577900976184e+01 2.7713784530915513e+00 12 66 -15
262 1 2.0070399654218839e+01 1.8473376955894210e+01 8.0913403430098274e+00 8 37 -44
78 1 3.1467253097687480e+00 2.3907901898845701e+01 5.9215883832489657e+00 -16 -51 -15
404 1 1.7904965237572043e+01 1.5213211237017857e+01 2.9891354934471415e+00 -20 147 58
263 1 7.5664287849046907e+00 1.5871884241045072e+01 8.1971059150373229e+00 37 145 -4
153 1 1.5887814702267097e+01 1.3895694520728142e+01 5.1834649513218691e+00 8 -20 84
482 1 2.1790267150545148e+01 2.3343101767007475e+01 2.6721759987838531e+00 12 78 37
166 1 1.4497425378809545e+00 1.4346564213444465e+01 3.0694702660275759e+00 44 -14 -18
445 1 3.9379790493389368e+00 1.3110857193907078e+01 3.1673603804998001e+00 120 75 14
357 1 8.9154340666560239e-01 1.3984560741535768e+01 3.7457733151219047e-01 2 -10 -4
174 1 1.2785229062367200e+01 2.2426097616677012e+01 7.9793999185582374e+00 9 94 -24
195 1 1.7043556891443188e+01 2.1724780905574100e+01 8.1279477476106745e+00 -18 7 70
4 1 9.3666259435615959e+00 2.4109369001399919e+01 7.9911763840249588e+00 29 -75 12
405 1 2.2934360667510241e+01 2.1283062897142408e+01 2.9662991875194944e-01 -20 -20 50
149 1 6.9523900810857899e+00 1.7493580482583958e+01 5.1053092802409217e-01 -48 52 1
72 1 4.1766456400116549e+00 1.7841345197686628e+01 5.2647209102045578e-01 36 62 49
251 1 1.8443467125476943e+01 1.5215084325399246e+01 1.1749623479490413e+01 -33 21 -45
143 1 4.6172139190730208e+00 2.3635185430108315e+01 9.0343920517572407e+00 42 -2 -10
188 1 8.4848042114677096e+00 1.8001410210158831e+01 1.0035920701452619e+01 11 -2 72
116 1 1.3687866113832531e+01 1.8088825069842137e+01 1.3573494308870764e+01 -50 -3 -3
305 1 2.4756575823757927e+01 1.5658071160309472e+01 1.3342424607632628e+01 11 100 37
142 1 2.4331598822723898e+01 2.1270396722104849e+01 1.4382405449267431e+01 18 23 60
390 1 2.2122174020993540e+01 1.5693116852144582e+01 1.4666867045803013e+01 -18 -44 -19
114 1 1.7408218795438763e+01 1.7530833976611426e+01 9.6090491570204435e+00 -22 15 -10
436 1 9.6193535966522141e+00 1.7728906026096887e+01 1.5830329819578401e+01 51 55 17
82 1 4.2598629680367139e+00 2.4744623893531227e+01 1.4878934777283286e+01 -5 3 -2
3 1 2.1620296091347342e+01 1.5255394480670081e+01 8.9263905837904378e+00 7 44 31
70 1 1.7966659540657744e+01 2.4591834476083207e+01 1.2476982632062116e+01 87 -9 21