LAMMPS (4 Jan 2019)
# LAMMPS input script
boundary p p p
units       real
atom_style  atomic
atom_modify map array sort 0 0
read_data   data.in
  orthogonal box = (0.108909 0.108909 0.108909) to (24.7261 24.7261 24.7261)
  1 by 2 by 3 MPI processor grid
  reading atoms ...
  512 atoms
  reading velocities ...
  512 velocities
pair_style  sw
pair_coeff  * * mW.sw WT

# ----- Variables -----
variable seed equal 26825
variable T equal 240.0000000000
variable P equal 986.923 # 1 bar

# ----- Initialize -----
neighbor 2.0 nsq
neigh_modify delay 0 every 1 check yes
timestep 5 # 5 fs   # Fix timestep here

# ----- Log file output -----
thermo       10000
thermo_style    custom  time temp press pe ke lx ly lz density vol
thermo_modify line multi norm yes flush yes format float %.6f

# ----- equilibruate --------
#velocity  all create ${T} ${seed}
fix 1 all npt temp ${T} ${T} 100 iso ${P} ${P} 1000
fix 1 all npt temp 240 ${T} 100 iso ${P} ${P} 1000
fix 1 all npt temp 240 240 100 iso ${P} ${P} 1000
fix 1 all npt temp 240 240 100 iso 986.923 ${P} 1000
fix 1 all npt temp 240 240 100 iso 986.923 986.923 1000
run 1000000 # 5 ns
Neighbor list info ...
  update every 1 steps, delay 0 steps, check yes
  max neighbors/atom: 2000, page size: 100000
  master list distance cutoff = 6.3065
  ghost atom cutoff = 6.3065
  1 neighbor lists, perpetual/occasional/extra = 1 0 0
  (1) pair sw, perpetual
      attributes: full, newton on
      pair build: full/nsq
      stencil: none
      bin: none
Per MPI rank memory allocation (min/avg/max) = 2.696 | 2.697 | 2.697 Mbytes
---------------- Step        0 ----- CPU =      0.0000 (sec) ----------------
Time     = 0.000000 Temp     = 236.337017 Press    = 304.048494 
PotEng   = -10.435447 KinEng   = 0.703100 Lx       = 24.617182 
Ly       = 24.617182 Lz       = 24.617182 Density  = 1.026705 
Volume   = 14918.150828 
---------------- Step    10000 ----- CPU =      5.9359 (sec) ----------------
Time     = 50000.000000 Temp     = 247.436721 Press    = 1062.617011 
PotEng   = -10.427469 KinEng   = 0.736121 Lx       = 24.601736 
Ly       = 24.601736 Lz       = 24.601736 Density  = 1.028640 
Volume   = 14890.087155 
---------------- Step    20000 ----- CPU =     11.9544 (sec) ----------------
Time     = 100000.000000 Temp     = 239.210811 Press    = 437.525503 
PotEng   = -10.397575 KinEng   = 0.711649 Lx       = 24.638211 
Ly       = 24.638211 Lz       = 24.638211 Density  = 1.024078 
Volume   = 14956.414470 
---------------- Step    30000 ----- CPU =     17.9179 (sec) ----------------
Time     = 150000.000000 Temp     = 227.307105 Press    = -194.315251 
PotEng   = -10.373498 KinEng   = 0.676236 Lx       = 24.656261 
Ly       = 24.656261 Lz       = 24.656261 Density  = 1.021831 
Volume   = 14989.309655 
---------------- Step    40000 ----- CPU =     23.9204 (sec) ----------------
Time     = 200000.000000 Temp     = 242.564159 Press    = 1408.477539 
PotEng   = -10.374183 KinEng   = 0.721626 Lx       = 24.640551 
Ly       = 24.640551 Lz       = 24.640551 Density  = 1.023786 
Volume   = 14960.676402 
---------------- Step    50000 ----- CPU =     29.8898 (sec) ----------------
Time     = 250000.000000 Temp     = 218.356027 Press    = 761.389863 
PotEng   = -10.370629 KinEng   = 0.649607 Lx       = 24.650441 
Ly       = 24.650441 Lz       = 24.650441 Density  = 1.022554 
Volume   = 14978.698923 
---------------- Step    60000 ----- CPU =     35.7623 (sec) ----------------
Time     = 300000.000000 Temp     = 261.325455 Press    = 1078.336171 
PotEng   = -10.459556 KinEng   = 0.777440 Lx       = 24.603338 
Ly       = 24.603338 Lz       = 24.603338 Density  = 1.028439 
Volume   = 14892.997402 
---------------- Step    70000 ----- CPU =     41.6948 (sec) ----------------
Time     = 350000.000000 Temp     = 230.851111 Press    = 1454.335508 
PotEng   = -10.326247 KinEng   = 0.686779 Lx       = 24.589362 
Ly       = 24.589362 Lz       = 24.589362 Density  = 1.030193 
Volume   = 14867.632105 
---------------- Step    80000 ----- CPU =     47.6173 (sec) ----------------
Time     = 400000.000000 Temp     = 234.093234 Press    = 616.630859 
PotEng   = -10.436405 KinEng   = 0.696425 Lx       = 24.663207 
Ly       = 24.663207 Lz       = 24.663207 Density  = 1.020967 
Volume   = 15001.982147 
---------------- Step    90000 ----- CPU =     53.5612 (sec) ----------------
Time     = 450000.000000 Temp     = 244.159467 Press    = 1165.382983 
PotEng   = -10.283928 KinEng   = 0.726372 Lx       = 24.653354 
Ly       = 24.653354 Lz       = 24.653354 Density  = 1.022192 
Volume   = 14984.009879 
---------------- Step   100000 ----- CPU =     59.4098 (sec) ----------------
Time     = 500000.000000 Temp     = 229.315407 Press    = 744.692021 
PotEng   = -10.423742 KinEng   = 0.682211 Lx       = 24.696141 
Ly       = 24.696141 Lz       = 24.696141 Density  = 1.016888 
Volume   = 15062.161312 
---------------- Step   110000 ----- CPU =     65.2869 (sec) ----------------
Time     = 550000.000000 Temp     = 249.521494 Press    = 2460.157538 
PotEng   = -10.460083 KinEng   = 0.742323 Lx       = 24.640584 
Ly       = 24.640584 Lz       = 24.640584 Density  = 1.023782 
Volume   = 14960.737625 
---------------- Step   120000 ----- CPU =     71.2222 (sec) ----------------
Time     = 600000.000000 Temp     = 228.734484 Press    = 2550.220473 
PotEng   = -10.351643 KinEng   = 0.680482 Lx       = 24.516171 
Ly       = 24.516171 Lz       = 24.516171 Density  = 1.039448 
Volume   = 14735.263818 
---------------- Step   130000 ----- CPU =     77.1915 (sec) ----------------
Time     = 650000.000000 Temp     = 240.284897 Press    = -118.592865 
PotEng   = -10.391101 KinEng   = 0.714845 Lx       = 24.648917 
Ly       = 24.648917 Lz       = 24.648917 Density  = 1.022744 
Volume   = 14975.919700 
---------------- Step   140000 ----- CPU =     83.1216 (sec) ----------------
Time     = 700000.000000 Temp     = 243.247334 Press    = 879.984940 
PotEng   = -10.408398 KinEng   = 0.723658 Lx       = 24.518391 
Ly       = 24.518391 Lz       = 24.518391 Density  = 1.039165 
Volume   = 14739.266606 
---------------- Step   150000 ----- CPU =     89.0778 (sec) ----------------
Time     = 750000.000000 Temp     = 236.341944 Press    = 41.830219 
PotEng   = -10.337745 KinEng   = 0.703114 Lx       = 24.732990 
Ly       = 24.732990 Lz       = 24.732990 Density  = 1.012350 
Volume   = 15129.684119 
---------------- Step   160000 ----- CPU =     95.0385 (sec) ----------------
Time     = 800000.000000 Temp     = 240.447851 Press    = 794.214391 
PotEng   = -10.449665 KinEng   = 0.715330 Lx       = 24.713451 
Ly       = 24.713451 Lz       = 24.713451 Density  = 1.014753 
Volume   = 15093.856067 
---------------- Step   170000 ----- CPU =    100.9920 (sec) ----------------
Time     = 850000.000000 Temp     = 241.172758 Press    = 835.913872 
PotEng   = -10.369296 KinEng   = 0.717486 Lx       = 24.690772 
Ly       = 24.690772 Lz       = 24.690772 Density  = 1.017552 
Volume   = 15052.339774 
---------------- Step   180000 ----- CPU =    106.9551 (sec) ----------------
Time     = 900000.000000 Temp     = 236.755406 Press    = 2294.628465 
PotEng   = -10.374882 KinEng   = 0.704345 Lx       = 24.649766 
Ly       = 24.649766 Lz       = 24.649766 Density  = 1.022638 
Volume   = 14977.468676 
---------------- Step   190000 ----- CPU =    112.9069 (sec) ----------------
Time     = 950000.000000 Temp     = 244.418969 Press    = 255.896914 
PotEng   = -10.332721 KinEng   = 0.727144 Lx       = 24.716819 
Ly       = 24.716819 Lz       = 24.716819 Density  = 1.014338 
Volume   = 15100.027390 
---------------- Step   200000 ----- CPU =    118.8226 (sec) ----------------
Time     = 1000000.000000 Temp     = 248.277549 Press    = 266.592646 
PotEng   = -10.351971 KinEng   = 0.738623 Lx       = 24.705767 
Ly       = 24.705767 Lz       = 24.705767 Density  = 1.015700 
Volume   = 15079.779866 
---------------- Step   210000 ----- CPU =    124.7613 (sec) ----------------
Time     = 1050000.000000 Temp     = 228.519520 Press    = 1986.669081 
PotEng   = -10.398677 KinEng   = 0.679843 Lx       = 24.549692 
Ly       = 24.549692 Lz       = 24.549692 Density  = 1.035195 
Volume   = 14795.790197 
---------------- Step   220000 ----- CPU =    130.6914 (sec) ----------------
Time     = 1100000.000000 Temp     = 242.093129 Press    = 47.351404 
PotEng   = -10.335484 KinEng   = 0.720224 Lx       = 24.685243 
Ly       = 24.685243 Lz       = 24.685243 Density  = 1.018236 
Volume   = 15042.229594 
---------------- Step   230000 ----- CPU =    136.6175 (sec) ----------------
Time     = 1150000.000000 Temp     = 256.547883 Press    = 528.736905 
PotEng   = -10.409332 KinEng   = 0.763227 Lx       = 24.653304 
Ly       = 24.653304 Lz       = 24.653304 Density  = 1.022198 
Volume   = 14983.918884 
---------------- Step   240000 ----- CPU =    142.5776 (sec) ----------------
Time     = 1200000.000000 Temp     = 244.550921 Press    = 334.969401 
PotEng   = -10.414726 KinEng   = 0.727536 Lx       = 24.677842 
Ly       = 24.677842 Lz       = 24.677842 Density  = 1.019152 
Volume   = 15028.704724 
---------------- Step   250000 ----- CPU =    148.5094 (sec) ----------------
Time     = 1250000.000000 Temp     = 232.475563 Press    = -558.791776 
PotEng   = -10.439485 KinEng   = 0.691612 Lx       = 24.606520 
Ly       = 24.606520 Lz       = 24.606520 Density  = 1.028040 
Volume   = 14898.776194 
---------------- Step   260000 ----- CPU =    154.4437 (sec) ----------------
Time     = 1300000.000000 Temp     = 245.214507 Press    = 275.913872 
PotEng   = -10.467812 KinEng   = 0.729510 Lx       = 24.683757 
Ly       = 24.683757 Lz       = 24.683757 Density  = 1.018420 
Volume   = 15039.514243 
---------------- Step   270000 ----- CPU =    160.3836 (sec) ----------------
Time     = 1350000.000000 Temp     = 243.450615 Press    = 1386.628208 
PotEng   = -10.403074 KinEng   = 0.724263 Lx       = 24.651159 
Ly       = 24.651159 Lz       = 24.651159 Density  = 1.022465 
Volume   = 14980.006811 
---------------- Step   280000 ----- CPU =    166.3068 (sec) ----------------
Time     = 1400000.000000 Temp     = 241.897886 Press    = 210.175396 
PotEng   = -10.430043 KinEng   = 0.719643 Lx       = 24.702951 
Ly       = 24.702951 Lz       = 24.702951 Density  = 1.016047 
Volume   = 15074.625071 
---------------- Step   290000 ----- CPU =    172.2365 (sec) ----------------
Time     = 1450000.000000 Temp     = 246.175265 Press    = 2408.242559 
PotEng   = -10.427105 KinEng   = 0.732368 Lx       = 24.569536 
Ly       = 24.569536 Lz       = 24.569536 Density  = 1.032689 
Volume   = 14831.697902 
---------------- Step   300000 ----- CPU =    178.1738 (sec) ----------------
Time     = 1500000.000000 Temp     = 230.049187 Press    = 1061.532067 
PotEng   = -10.405281 KinEng   = 0.684394 Lx       = 24.691278 
Ly       = 24.691278 Lz       = 24.691278 Density  = 1.017489 
Volume   = 15053.264216 
---------------- Step   310000 ----- CPU =    184.0980 (sec) ----------------
Time     = 1550000.000000 Temp     = 251.327251 Press    = 1429.963987 
PotEng   = -10.370967 KinEng   = 0.747696 Lx       = 24.621325 
Ly       = 24.621325 Lz       = 24.621325 Density  = 1.026186 
Volume   = 14925.684484 
---------------- Step   320000 ----- CPU =    190.0526 (sec) ----------------
Time     = 1600000.000000 Temp     = 245.754876 Press    = 697.139788 
PotEng   = -10.363458 KinEng   = 0.731118 Lx       = 24.685254 
Ly       = 24.685254 Lz       = 24.685254 Density  = 1.018234 
Volume   = 15042.249676 
---------------- Step   330000 ----- CPU =    196.0252 (sec) ----------------
Time     = 1650000.000000 Temp     = 226.417841 Press    = 710.358378 
PotEng   = -10.411139 KinEng   = 0.673590 Lx       = 24.616455 
Ly       = 24.616455 Lz       = 24.616455 Density  = 1.026796 
Volume   = 14916.829913 
---------------- Step   340000 ----- CPU =    201.9425 (sec) ----------------
Time     = 1700000.000000 Temp     = 248.664356 Press    = 1633.265257 
PotEng   = -10.436411 KinEng   = 0.739774 Lx       = 24.517267 
Ly       = 24.517267 Lz       = 24.517267 Density  = 1.039308 
Volume   = 14737.240573 
---------------- Step   350000 ----- CPU =    207.8823 (sec) ----------------
Time     = 1750000.000000 Temp     = 235.241023 Press    = 772.588862 
PotEng   = -10.378913 KinEng   = 0.699839 Lx       = 24.716411 
Ly       = 24.716411 Lz       = 24.716411 Density  = 1.014388 
Volume   = 15099.278740 
---------------- Step   360000 ----- CPU =    213.8023 (sec) ----------------
Time     = 1800000.000000 Temp     = 245.606997 Press    = 1364.727004 
PotEng   = -10.374403 KinEng   = 0.730678 Lx       = 24.580338 
Ly       = 24.580338 Lz       = 24.580338 Density  = 1.031328 
Volume   = 14851.269120 
---------------- Step   370000 ----- CPU =    219.7342 (sec) ----------------
Time     = 1850000.000000 Temp     = 240.584996 Press    = 1562.020181 
PotEng   = -10.373589 KinEng   = 0.715738 Lx       = 24.652249 
Ly       = 24.652249 Lz       = 24.652249 Density  = 1.022329 
Volume   = 14981.994936 
---------------- Step   380000 ----- CPU =    225.6802 (sec) ----------------
Time     = 1900000.000000 Temp     = 254.936757 Press    = 1596.178343 
PotEng   = -10.394940 KinEng   = 0.758434 Lx       = 24.656447 
Ly       = 24.656447 Lz       = 24.656447 Density  = 1.021807 
Volume   = 14989.648872 
---------------- Step   390000 ----- CPU =    231.5663 (sec) ----------------
Time     = 1950000.000000 Temp     = 246.782197 Press    = 1006.694904 
PotEng   = -10.374988 KinEng   = 0.734174 Lx       = 24.623905 
Ly       = 24.623905 Lz       = 24.623905 Density  = 1.025864 
Volume   = 14930.377130 
---------------- Step   400000 ----- CPU =    237.5117 (sec) ----------------
Time     = 2000000.000000 Temp     = 239.934487 Press    = -90.135642 
PotEng   = -10.492280 KinEng   = 0.713802 Lx       = 24.676101 
Ly       = 24.676101 Lz       = 24.676101 Density  = 1.019368 
Volume   = 15025.523035 
---------------- Step   410000 ----- CPU =    243.4118 (sec) ----------------
Time     = 2050000.000000 Temp     = 249.489280 Press    = 1111.167798 
PotEng   = -10.386465 KinEng   = 0.742228 Lx       = 24.617919 
Ly       = 24.617919 Lz       = 24.617919 Density  = 1.026612 
Volume   = 14919.491904 
---------------- Step   420000 ----- CPU =    249.3569 (sec) ----------------
Time     = 2100000.000000 Temp     = 233.310421 Press    = 482.953424 
PotEng   = -10.448943 KinEng   = 0.694096 Lx       = 24.695810 
Ly       = 24.695810 Lz       = 24.695810 Density  = 1.016929 
Volume   = 15061.554930 
---------------- Step   430000 ----- CPU =    255.2599 (sec) ----------------
Time     = 2150000.000000 Temp     = 238.083993 Press    = 566.746934 
PotEng   = -10.426619 KinEng   = 0.708297 Lx       = 24.583924 
Ly       = 24.583924 Lz       = 24.583924 Density  = 1.030877 
Volume   = 14857.768557 
---------------- Step   440000 ----- CPU =    261.1793 (sec) ----------------
Time     = 2200000.000000 Temp     = 237.166583 Press    = 149.599433 
PotEng   = -10.434254 KinEng   = 0.705568 Lx       = 24.646419 
Ly       = 24.646419 Lz       = 24.646419 Density  = 1.023055 
Volume   = 14971.367086 
---------------- Step   450000 ----- CPU =    267.1086 (sec) ----------------
Time     = 2250000.000000 Temp     = 231.076940 Press    = 1970.221513 
PotEng   = -10.435582 KinEng   = 0.687451 Lx       = 24.641557 
Ly       = 24.641557 Lz       = 24.641557 Density  = 1.023661 
Volume   = 14962.509702 
---------------- Step   460000 ----- CPU =    273.0556 (sec) ----------------
Time     = 2300000.000000 Temp     = 240.964899 Press    = 1512.485285 
PotEng   = -10.441453 KinEng   = 0.716868 Lx       = 24.632676 
Ly       = 24.632676 Lz       = 24.632676 Density  = 1.024768 
Volume   = 14946.337083 
---------------- Step   470000 ----- CPU =    278.9677 (sec) ----------------
Time     = 2350000.000000 Temp     = 250.777954 Press    = 1492.472810 
PotEng   = -10.442997 KinEng   = 0.746061 Lx       = 24.621272 
Ly       = 24.621272 Lz       = 24.621272 Density  = 1.026193 
Volume   = 14925.588851 
---------------- Step   480000 ----- CPU =    284.8117 (sec) ----------------
Time     = 2400000.000000 Temp     = 240.656130 Press    = 1234.205086 
PotEng   = -10.398844 KinEng   = 0.715949 Lx       = 24.604766 
Ly       = 24.604766 Lz       = 24.604766 Density  = 1.028260 
Volume   = 14895.590625 
---------------- Step   490000 ----- CPU =    290.7213 (sec) ----------------
Time     = 2450000.000000 Temp     = 246.663887 Press    = 1014.342080 
PotEng   = -10.390914 KinEng   = 0.733822 Lx       = 24.639380 
Ly       = 24.639380 Lz       = 24.639380 Density  = 1.023932 
Volume   = 14958.543481 
---------------- Step   500000 ----- CPU =    296.6918 (sec) ----------------
Time     = 2500000.000000 Temp     = 249.991367 Press    = 1287.975352 
PotEng   = -10.397414 KinEng   = 0.743721 Lx       = 24.662719 
Ly       = 24.662719 Lz       = 24.662719 Density  = 1.021028 
Volume   = 15001.091568 
---------------- Step   510000 ----- CPU =    302.6387 (sec) ----------------
Time     = 2550000.000000 Temp     = 251.566705 Press    = 1815.063497 
PotEng   = -10.400484 KinEng   = 0.748408 Lx       = 24.639120 
Ly       = 24.639120 Lz       = 24.639120 Density  = 1.023965 
Volume   = 14958.070380 
---------------- Step   520000 ----- CPU =    308.5449 (sec) ----------------
Time     = 2600000.000000 Temp     = 247.098484 Press    = 1493.500554 
PotEng   = -10.385431 KinEng   = 0.735115 Lx       = 24.645623 
Ly       = 24.645623 Lz       = 24.645623 Density  = 1.023154 
Volume   = 14969.916687 
---------------- Step   530000 ----- CPU =    314.4797 (sec) ----------------
Time     = 2650000.000000 Temp     = 243.209075 Press    = 1154.376564 
PotEng   = -10.442775 KinEng   = 0.723544 Lx       = 24.610342 
Ly       = 24.610342 Lz       = 24.610342 Density  = 1.027561 
Volume   = 14905.719801 
---------------- Step   540000 ----- CPU =    320.3957 (sec) ----------------
Time     = 2700000.000000 Temp     = 254.055467 Press    = -32.991105 
PotEng   = -10.326721 KinEng   = 0.755812 Lx       = 24.623924 
Ly       = 24.623924 Lz       = 24.623924 Density  = 1.025862 
Volume   = 14930.411100 
---------------- Step   550000 ----- CPU =    326.2944 (sec) ----------------
Time     = 2750000.000000 Temp     = 236.338845 Press    = 927.168447 
PotEng   = -10.524255 KinEng   = 0.703105 Lx       = 24.643649 
Ly       = 24.643649 Lz       = 24.643649 Density  = 1.023400 
Volume   = 14966.319672 
---------------- Step   560000 ----- CPU =    332.1779 (sec) ----------------
Time     = 2800000.000000 Temp     = 249.960409 Press    = 1396.888950 
PotEng   = -10.446002 KinEng   = 0.743629 Lx       = 24.641247 
Ly       = 24.641247 Lz       = 24.641247 Density  = 1.023699 
Volume   = 14961.944148 
---------------- Step   570000 ----- CPU =    338.1062 (sec) ----------------
Time     = 2850000.000000 Temp     = 235.868647 Press    = -329.450472 
PotEng   = -10.426432 KinEng   = 0.701706 Lx       = 24.776870 
Ly       = 24.776870 Lz       = 24.776870 Density  = 1.006981 
Volume   = 15210.354922 
---------------- Step   580000 ----- CPU =    344.0011 (sec) ----------------
Time     = 2900000.000000 Temp     = 234.882932 Press    = 1098.735092 
PotEng   = -10.388616 KinEng   = 0.698774 Lx       = 24.558617 
Ly       = 24.558617 Lz       = 24.558617 Density  = 1.034067 
Volume   = 14811.932881 
---------------- Step   590000 ----- CPU =    349.9772 (sec) ----------------
Time     = 2950000.000000 Temp     = 246.054749 Press    = 1077.875872 
PotEng   = -10.354217 KinEng   = 0.732010 Lx       = 24.647988 
Ly       = 24.647988 Lz       = 24.647988 Density  = 1.022860 
Volume   = 14974.227961 
---------------- Step   600000 ----- CPU =    355.9039 (sec) ----------------
Time     = 3000000.000000 Temp     = 239.793167 Press    = 1237.744728 
PotEng   = -10.435703 KinEng   = 0.713382 Lx       = 24.532466 
Ly       = 24.532466 Lz       = 24.532466 Density  = 1.037378 
Volume   = 14764.664771 
---------------- Step   610000 ----- CPU =    361.8733 (sec) ----------------
Time     = 3050000.000000 Temp     = 250.626623 Press    = 98.162679 
PotEng   = -10.410153 KinEng   = 0.745611 Lx       = 24.686530 
Ly       = 24.686530 Lz       = 24.686530 Density  = 1.018076 
Volume   = 15044.582368 
---------------- Step   620000 ----- CPU =    367.8237 (sec) ----------------
Time     = 3100000.000000 Temp     = 241.706239 Press    = 864.586092 
PotEng   = -10.418549 KinEng   = 0.719073 Lx       = 24.608940 
Ly       = 24.608940 Lz       = 24.608940 Density  = 1.027736 
Volume   = 14903.173193 
---------------- Step   630000 ----- CPU =    373.7507 (sec) ----------------
Time     = 3150000.000000 Temp     = 233.136479 Press    = 1339.130333 
PotEng   = -10.412973 KinEng   = 0.693578 Lx       = 24.673584 
Ly       = 24.673584 Lz       = 24.673584 Density  = 1.019680 
Volume   = 15020.926124 
---------------- Step   640000 ----- CPU =    379.6761 (sec) ----------------
Time     = 3200000.000000 Temp     = 239.976463 Press    = 1016.062246 
PotEng   = -10.385854 KinEng   = 0.713927 Lx       = 24.600952 
Ly       = 24.600952 Lz       = 24.600952 Density  = 1.028738 
Volume   = 14888.665311 
---------------- Step   650000 ----- CPU =    385.6218 (sec) ----------------
Time     = 3250000.000000 Temp     = 249.684032 Press    = 1669.927518 
PotEng   = -10.448623 KinEng   = 0.742807 Lx       = 24.528088 
Ly       = 24.528088 Lz       = 24.528088 Density  = 1.037933 
Volume   = 14756.762064 
---------------- Step   660000 ----- CPU =    391.5384 (sec) ----------------
Time     = 3300000.000000 Temp     = 245.343591 Press    = 1331.398818 
PotEng   = -10.415038 KinEng   = 0.729894 Lx       = 24.650262 
Ly       = 24.650262 Lz       = 24.650262 Density  = 1.022577 
Volume   = 14978.372916 
---------------- Step   670000 ----- CPU =    397.5277 (sec) ----------------
Time     = 3350000.000000 Temp     = 233.474108 Press    = 196.863752 
PotEng   = -10.376399 KinEng   = 0.694583 Lx       = 24.602754 
Ly       = 24.602754 Lz       = 24.602754 Density  = 1.028512 
Volume   = 14891.936182 
---------------- Step   680000 ----- CPU =    403.4510 (sec) ----------------
Time     = 3400000.000000 Temp     = 240.061507 Press    = 761.063503 
PotEng   = -10.455138 KinEng   = 0.714180 Lx       = 24.670995 
Ly       = 24.670995 Lz       = 24.670995 Density  = 1.020001 
Volume   = 15016.199041 
---------------- Step   690000 ----- CPU =    409.3799 (sec) ----------------
Time     = 3450000.000000 Temp     = 257.521586 Press    = 2264.603851 
PotEng   = -10.427791 KinEng   = 0.766124 Lx       = 24.563905 
Ly       = 24.563905 Lz       = 24.563905 Density  = 1.033400 
Volume   = 14821.501678 
---------------- Step   700000 ----- CPU =    415.3136 (sec) ----------------
Time     = 3500000.000000 Temp     = 233.354024 Press    = 1514.623086 
PotEng   = -10.430746 KinEng   = 0.694225 Lx       = 24.576760 
Ly       = 24.576760 Lz       = 24.576760 Density  = 1.031779 
Volume   = 14844.784669 
---------------- Step   710000 ----- CPU =    421.2263 (sec) ----------------
Time     = 3550000.000000 Temp     = 239.575065 Press    = 1038.459720 
PotEng   = -10.347824 KinEng   = 0.712733 Lx       = 24.630252 
Ly       = 24.630252 Lz       = 24.630252 Density  = 1.025071 
Volume   = 14941.926357 
---------------- Step   720000 ----- CPU =    427.2116 (sec) ----------------
Time     = 3600000.000000 Temp     = 253.452556 Press    = 904.764071 
PotEng   = -10.427334 KinEng   = 0.754018 Lx       = 24.588633 
Ly       = 24.588633 Lz       = 24.588633 Density  = 1.030285 
Volume   = 14866.308985 
---------------- Step   730000 ----- CPU =    433.1429 (sec) ----------------
Time     = 3650000.000000 Temp     = 248.530383 Press    = 1702.221197 
PotEng   = -10.381135 KinEng   = 0.739375 Lx       = 24.625747 
Ly       = 24.625747 Lz       = 24.625747 Density  = 1.025634 
Volume   = 14933.727351 
---------------- Step   740000 ----- CPU =    439.0311 (sec) ----------------
Time     = 3700000.000000 Temp     = 249.686426 Press    = 1506.569269 
PotEng   = -10.406062 KinEng   = 0.742814 Lx       = 24.605863 
Ly       = 24.605863 Lz       = 24.605863 Density  = 1.028122 
Volume   = 14897.583511 
---------------- Step   750000 ----- CPU =    444.9399 (sec) ----------------
Time     = 3750000.000000 Temp     = 224.290627 Press    = -252.076588 
PotEng   = -10.386318 KinEng   = 0.667262 Lx       = 24.731122 
Ly       = 24.731122 Lz       = 24.731122 Density  = 1.012579 
Volume   = 15126.255757 
---------------- Step   760000 ----- CPU =    450.8502 (sec) ----------------
Time     = 3800000.000000 Temp     = 227.453045 Press    = 61.576092 
PotEng   = -10.421636 KinEng   = 0.676670 Lx       = 24.671977 
Ly       = 24.671977 Lz       = 24.671977 Density  = 1.019879 
Volume   = 15017.990666 
---------------- Step   770000 ----- CPU =    456.7666 (sec) ----------------
Time     = 3850000.000000 Temp     = 240.693037 Press    = 307.297261 
PotEng   = -10.468340 KinEng   = 0.716059 Lx       = 24.677046 
Ly       = 24.677046 Lz       = 24.677046 Density  = 1.019251 
Volume   = 15027.250887 
---------------- Step   780000 ----- CPU =    462.6349 (sec) ----------------
Time     = 3900000.000000 Temp     = 252.172738 Press    = 784.771512 
PotEng   = -10.439817 KinEng   = 0.750211 Lx       = 24.571210 
Ly       = 24.571210 Lz       = 24.571210 Density  = 1.032478 
Volume   = 14834.730375 
---------------- Step   790000 ----- CPU =    468.5757 (sec) ----------------
Time     = 3950000.000000 Temp     = 237.623015 Press    = 1432.279181 
PotEng   = -10.406392 KinEng   = 0.706926 Lx       = 24.633870 
Ly       = 24.633870 Lz       = 24.633870 Density  = 1.024619 
Volume   = 14948.511295 
---------------- Step   800000 ----- CPU =    474.5084 (sec) ----------------
Time     = 4000000.000000 Temp     = 253.268345 Press    = 1517.138609 
PotEng   = -10.466970 KinEng   = 0.753470 Lx       = 24.708687 
Ly       = 24.708687 Lz       = 24.708687 Density  = 1.015340 
Volume   = 15085.128425 
---------------- Step   810000 ----- CPU =    480.3656 (sec) ----------------
Time     = 4050000.000000 Temp     = 245.029024 Press    = 1632.826843 
PotEng   = -10.395973 KinEng   = 0.728958 Lx       = 24.619160 
Ly       = 24.619160 Lz       = 24.619160 Density  = 1.026457 
Volume   = 14921.747243 
---------------- Step   820000 ----- CPU =    486.4122 (sec) ----------------
Time     = 4100000.000000 Temp     = 233.837206 Press    = 1471.259748 
PotEng   = -10.394921 KinEng   = 0.695663 Lx       = 24.581637 
Ly       = 24.581637 Lz       = 24.581637 Density  = 1.031165 
Volume   = 14853.624080 
---------------- Step   830000 ----- CPU =    492.3008 (sec) ----------------
Time     = 4150000.000000 Temp     = 230.145098 Press    = 642.031179 
PotEng   = -10.443028 KinEng   = 0.684679 Lx       = 24.662131 
Ly       = 24.662131 Lz       = 24.662131 Density  = 1.021101 
Volume   = 15000.019259 
---------------- Step   840000 ----- CPU =    498.2694 (sec) ----------------
Time     = 4200000.000000 Temp     = 234.543824 Press    = 384.366005 
PotEng   = -10.456069 KinEng   = 0.697765 Lx       = 24.644415 
Ly       = 24.644415 Lz       = 24.644415 Density  = 1.023305 
Volume   = 14967.715641 
---------------- Step   850000 ----- CPU =    504.2635 (sec) ----------------
Time     = 4250000.000000 Temp     = 250.353419 Press    = 218.858537 
PotEng   = -10.463104 KinEng   = 0.744798 Lx       = 24.746865 
Ly       = 24.746865 Lz       = 24.746865 Density  = 1.010648 
Volume   = 15155.161905 
---------------- Step   860000 ----- CPU =    510.1425 (sec) ----------------
Time     = 4300000.000000 Temp     = 257.408602 Press    = 1447.241332 
PotEng   = -10.471043 KinEng   = 0.765788 Lx       = 24.670387 
Ly       = 24.670387 Lz       = 24.670387 Density  = 1.020076 
Volume   = 15015.087936 
---------------- Step   870000 ----- CPU =    516.0528 (sec) ----------------
Time     = 4350000.000000 Temp     = 235.701557 Press    = 1838.441768 
PotEng   = -10.368283 KinEng   = 0.701209 Lx       = 24.580649 
Ly       = 24.580649 Lz       = 24.580649 Density  = 1.031289 
Volume   = 14851.832606 
---------------- Step   880000 ----- CPU =    521.9921 (sec) ----------------
Time     = 4400000.000000 Temp     = 259.922748 Press    = 1429.264969 
PotEng   = -10.410008 KinEng   = 0.773267 Lx       = 24.731939 
Ly       = 24.731939 Lz       = 24.731939 Density  = 1.012479 
Volume   = 15127.756353 
---------------- Step   890000 ----- CPU =    527.9672 (sec) ----------------
Time     = 4450000.000000 Temp     = 237.944161 Press    = 154.404338 
PotEng   = -10.505891 KinEng   = 0.707881 Lx       = 24.628410 
Ly       = 24.628410 Lz       = 24.628410 Density  = 1.025301 
Volume   = 14938.573263 
---------------- Step   900000 ----- CPU =    533.8962 (sec) ----------------
Time     = 4500000.000000 Temp     = 237.062575 Press    = 1994.455872 
PotEng   = -10.454800 KinEng   = 0.705258 Lx       = 24.668570 
Ly       = 24.668570 Lz       = 24.668570 Density  = 1.020302 
Volume   = 15011.770786 
---------------- Step   910000 ----- CPU =    539.8171 (sec) ----------------
Time     = 4550000.000000 Temp     = 227.965772 Press    = 921.297527 
PotEng   = -10.412544 KinEng   = 0.678195 Lx       = 24.582462 
Ly       = 24.582462 Lz       = 24.582462 Density  = 1.031061 
Volume   = 14855.118937 
---------------- Step   920000 ----- CPU =    545.7737 (sec) ----------------
Time     = 4600000.000000 Temp     = 248.672627 Press    = 808.442097 
PotEng   = -10.338371 KinEng   = 0.739798 Lx       = 24.720854 
Ly       = 24.720854 Lz       = 24.720854 Density  = 1.013842 
Volume   = 15107.423400 
---------------- Step   930000 ----- CPU =    551.7575 (sec) ----------------
Time     = 4650000.000000 Temp     = 249.006445 Press    = 1214.703987 
PotEng   = -10.388502 KinEng   = 0.740791 Lx       = 24.552696 
Ly       = 24.552696 Lz       = 24.552696 Density  = 1.034816 
Volume   = 14801.221867 
---------------- Step   940000 ----- CPU =    557.7080 (sec) ----------------
Time     = 4700000.000000 Temp     = 230.606180 Press    = 1044.086552 
PotEng   = -10.378896 KinEng   = 0.686051 Lx       = 24.682635 
Ly       = 24.682635 Lz       = 24.682635 Density  = 1.018558 
Volume   = 15037.463060 
---------------- Step   950000 ----- CPU =    563.6128 (sec) ----------------
Time     = 4750000.000000 Temp     = 241.601235 Press    = 1225.327563 
PotEng   = -10.395336 KinEng   = 0.718761 Lx       = 24.621424 
Ly       = 24.621424 Lz       = 24.621424 Density  = 1.026174 
Volume   = 14925.864445 
---------------- Step   960000 ----- CPU =    569.6003 (sec) ----------------
Time     = 4800000.000000 Temp     = 245.180503 Press    = 483.464813 
PotEng   = -10.426215 KinEng   = 0.729409 Lx       = 24.659852 
Ly       = 24.659852 Lz       = 24.659852 Density  = 1.021384 
Volume   = 14995.861088 
---------------- Step   970000 ----- CPU =    575.5261 (sec) ----------------
Time     = 4850000.000000 Temp     = 232.529013 Press    = 1091.996298 
PotEng   = -10.373639 KinEng   = 0.691771 Lx       = 24.663913 
Ly       = 24.663913 Lz       = 24.663913 Density  = 1.020880 
Volume   = 15003.270908 
---------------- Step   980000 ----- CPU =    581.4744 (sec) ----------------
Time     = 4900000.000000 Temp     = 233.766935 Press    = 389.724493 
PotEng   = -10.478308 KinEng   = 0.695454 Lx       = 24.683587 
Ly       = 24.683587 Lz       = 24.683587 Density  = 1.018441 
Volume   = 15039.203575 
---------------- Step   990000 ----- CPU =    587.3307 (sec) ----------------
Time     = 4950000.000000 Temp     = 239.926288 Press    = 1017.806076 
PotEng   = -10.461291 KinEng   = 0.713778 Lx       = 24.637788 
Ly       = 24.637788 Lz       = 24.637788 Density  = 1.024131 
Volume   = 14955.645491 
---------------- Step  1000000 ----- CPU =    593.2910 (sec) ----------------
Time     = 5000000.000000 Temp     = 218.318765 Press    = 1521.871934 
PotEng   = -10.394337 KinEng   = 0.649496 Lx       = 24.645694 
Ly       = 24.645694 Lz       = 24.645694 Density  = 1.023145 
Volume   = 14970.045909 
Loop time of 593.291 on 6 procs for 1000000 steps with 512 atoms

Performance: 728.142 ns/day, 0.033 hours/ns, 1685.513 timesteps/s
97.2% CPU use with 6 MPI tasks x no OpenMP threads

MPI task timing breakdown:
Section |  min time  |  avg time  |  max time  |%varavg| %total
---------------------------------------------------------------
Pair    | 500.65     | 504.38     | 508.06     |  14.1 | 85.01
Neigh   | 12.756     | 12.77      | 12.783     |   0.3 |  2.15
Comm    | 60.104     | 63.681     | 67.221     |  38.0 | 10.73
Output  | 0.0021324  | 0.0036305  | 0.011097   |   5.5 |  0.00
Modify  | 10.05      | 10.27      | 10.427     |   4.0 |  1.73
Other   |            | 2.182      |            |       |  0.37

Nlocal:    85.3333 ave 87 max 84 min
Histogram: 2 0 0 1 0 0 2 0 0 1
Nghost:    574.333 ave 578 max 568 min
Histogram: 1 0 1 0 0 0 0 0 1 3
Neighs:    0 ave 0 max 0 min
Histogram: 6 0 0 0 0 0 0 0 0 0
FullNghs:  2911.67 ave 2966 max 2849 min
Histogram: 1 0 0 0 2 0 1 1 0 1

Total # of neighbors = 17470
Ave neighs/atom = 34.1211
Neighbor list builds = 56642
Dangerous builds = 0
#reset_timestep 0
#unfix 1  # Remove the fix (important!)

# ---- Custom dump ----
# Easier to analyze than LAMMP's log file

variable        engtot equal etotal
variable        utotal equal pe
variable        cellx equal lx
variable        kintemp equal temp
variable        virpress equal press
variable        massdensity equal density
variable 		volume equal vol

fix             thermodata all print 1000 "${massdensity}" file "Ref.density" screen no


# DCD trajectory (every 0.5 ps)
#dump            1 all dcd 5000 traj.dcd

# ----- Temperature/Pressure Controls -----
fix 1 all npt temp ${T} ${T} 100 iso ${P} ${P} 1000
fix 1 all npt temp 240 ${T} 100 iso ${P} ${P} 1000
fix 1 all npt temp 240 240 100 iso ${P} ${P} 1000
fix 1 all npt temp 240 240 100 iso 986.923 ${P} 1000
fix 1 all npt temp 240 240 100 iso 986.923 986.923 1000

run 4000000  # production 20 ns
Per MPI rank memory allocation (min/avg/max) = 2.945 | 2.945 | 2.945 Mbytes
---------------- Step  1000000 ----- CPU =      0.0000 (sec) ----------------
Time     = 5000000.000000 Temp     = 218.318765 Press    = 1521.871934 
PotEng   = -10.394337 KinEng   = 0.649496 Lx       = 24.645694 
Ly       = 24.645694 Lz       = 24.645694 Density  = 1.023145 
Volume   = 14970.045909 
---------------- Step  1010000 ----- CPU =      5.9012 (sec) ----------------
Time     = 5050000.000000 Temp     = 229.460739 Press    = 520.301416 
PotEng   = -10.423700 KinEng   = 0.682643 Lx       = 24.629128 
Ly       = 24.629128 Lz       = 24.629128 Density  = 1.025211 
Volume   = 14939.879482 
---------------- Step  1020000 ----- CPU =     11.8282 (sec) ----------------
Time     = 5100000.000000 Temp     = 243.887662 Press    = 1600.183832 
PotEng   = -10.416308 KinEng   = 0.725563 Lx       = 24.661730 
Ly       = 24.661730 Lz       = 24.661730 Density  = 1.021151 
Volume   = 14999.287930 
---------------- Step  1030000 ----- CPU =     17.7780 (sec) ----------------
Time     = 5150000.000000 Temp     = 225.584806 Press    = -42.912576 
PotEng   = -10.373149 KinEng   = 0.671112 Lx       = 24.664938 
Ly       = 24.664938 Lz       = 24.664938 Density  = 1.020752 
Volume   = 15005.141235 
---------------- Step  1040000 ----- CPU =     23.7107 (sec) ----------------
Time     = 5200000.000000 Temp     = 238.999679 Press    = -70.322547 
PotEng   = -10.387588 KinEng   = 0.711021 Lx       = 24.729874 
Ly       = 24.729874 Lz       = 24.729874 Density  = 1.012733 
Volume   = 15123.966358 
---------------- Step  1050000 ----- CPU =     29.6904 (sec) ----------------
Time     = 5250000.000000 Temp     = 244.523863 Press    = 1464.531390 
PotEng   = -10.402907 KinEng   = 0.727456 Lx       = 24.648093 
Ly       = 24.648093 Lz       = 24.648093 Density  = 1.022847 
Volume   = 14974.418013 
---------------- Step  1060000 ----- CPU =     35.5993 (sec) ----------------
Time     = 5300000.000000 Temp     = 253.274966 Press    = 386.894326 
PotEng   = -10.433063 KinEng   = 0.753490 Lx       = 24.698897 
Ly       = 24.698897 Lz       = 24.698897 Density  = 1.016548 
Volume   = 15067.204982 
---------------- Step  1070000 ----- CPU =     41.5532 (sec) ----------------
Time     = 5350000.000000 Temp     = 242.648044 Press    = 1378.301731 
PotEng   = -10.380159 KinEng   = 0.721875 Lx       = 24.600944 
Ly       = 24.600944 Lz       = 24.600944 Density  = 1.028739 
Volume   = 14888.649726 
---------------- Step  1080000 ----- CPU =     47.5339 (sec) ----------------
Time     = 5400000.000000 Temp     = 223.333677 Press    = 1156.150194 
PotEng   = -10.467088 KinEng   = 0.664415 Lx       = 24.671857 
Ly       = 24.671857 Lz       = 24.671857 Density  = 1.019894 
Volume   = 15017.772632 
---------------- Step  1090000 ----- CPU =     53.4995 (sec) ----------------
Time     = 5450000.000000 Temp     = 240.568837 Press    = 1697.238020 
PotEng   = -10.393733 KinEng   = 0.715689 Lx       = 24.557341 
Ly       = 24.557341 Lz       = 24.557341 Density  = 1.034229 
Volume   = 14809.623476 
---------------- Step  1100000 ----- CPU =     59.4532 (sec) ----------------
Time     = 5500000.000000 Temp     = 244.095270 Press    = -98.133428 
PotEng   = -10.368447 KinEng   = 0.726181 Lx       = 24.809663 
Ly       = 24.809663 Lz       = 24.809663 Density  = 1.002993 
Volume   = 15270.828705 
---------------- Step  1110000 ----- CPU =     65.3504 (sec) ----------------
Time     = 5550000.000000 Temp     = 252.200752 Press    = 442.793429 
PotEng   = -10.426014 KinEng   = 0.750294 Lx       = 24.691813 
Ly       = 24.691813 Lz       = 24.691813 Density  = 1.017423 
Volume   = 15054.243847 
---------------- Step  1120000 ----- CPU =     71.2989 (sec) ----------------
Time     = 5600000.000000 Temp     = 245.112226 Press    = 1734.241870 
PotEng   = -10.395455 KinEng   = 0.729206 Lx       = 24.646223 
Ly       = 24.646223 Lz       = 24.646223 Density  = 1.023080 
Volume   = 14971.009814 
---------------- Step  1130000 ----- CPU =     77.2907 (sec) ----------------
Time     = 5650000.000000 Temp     = 245.166193 Press    = 1360.263751 
PotEng   = -10.393731 KinEng   = 0.729367 Lx       = 24.585617 
Ly       = 24.585617 Lz       = 24.585617 Density  = 1.030664 
Volume   = 14860.839836 
---------------- Step  1140000 ----- CPU =     83.2333 (sec) ----------------
Time     = 5700000.000000 Temp     = 238.429000 Press    = 1270.340403 
PotEng   = -10.381219 KinEng   = 0.709323 Lx       = 24.593535 
Ly       = 24.593535 Lz       = 24.593535 Density  = 1.029669 
Volume   = 14875.201771 
---------------- Step  1150000 ----- CPU =     89.1686 (sec) ----------------
Time     = 5750000.000000 Temp     = 235.540014 Press    = 271.433215 
PotEng   = -10.395183 KinEng   = 0.700729 Lx       = 24.677104 
Ly       = 24.677104 Lz       = 24.677104 Density  = 1.019243 
Volume   = 15027.356600 
---------------- Step  1160000 ----- CPU =     95.1221 (sec) ----------------
Time     = 5800000.000000 Temp     = 242.978038 Press    = 1898.404172 
PotEng   = -10.406357 KinEng   = 0.722857 Lx       = 24.589580 
Ly       = 24.589580 Lz       = 24.589580 Density  = 1.030166 
Volume   = 14868.026291 
---------------- Step  1170000 ----- CPU =    101.0639 (sec) ----------------
Time     = 5850000.000000 Temp     = 243.765089 Press    = 603.523103 
PotEng   = -10.433580 KinEng   = 0.725198 Lx       = 24.646226 
Ly       = 24.646226 Lz       = 24.646226 Density  = 1.023079 
Volume   = 14971.015980 
---------------- Step  1180000 ----- CPU =    107.0276 (sec) ----------------
Time     = 5900000.000000 Temp     = 237.945844 Press    = 213.808263 
PotEng   = -10.422662 KinEng   = 0.707886 Lx       = 24.763849 
Ly       = 24.763849 Lz       = 24.763849 Density  = 1.008570 
Volume   = 15186.386849 
---------------- Step  1190000 ----- CPU =    112.9120 (sec) ----------------
Time     = 5950000.000000 Temp     = 234.701762 Press    = 870.281387 
PotEng   = -10.400952 KinEng   = 0.698235 Lx       = 24.653069 
Ly       = 24.653069 Lz       = 24.653069 Density  = 1.022227 
Volume   = 14983.489335 
---------------- Step  1200000 ----- CPU =    118.8642 (sec) ----------------
Time     = 6000000.000000 Temp     = 242.467770 Press    = 644.914364 
PotEng   = -10.373230 KinEng   = 0.721339 Lx       = 24.630106 
Ly       = 24.630106 Lz       = 24.630106 Density  = 1.025089 
Volume   = 14941.659932 
---------------- Step  1210000 ----- CPU =    124.8423 (sec) ----------------
Time     = 6050000.000000 Temp     = 243.275087 Press    = 1152.000778 
PotEng   = -10.482891 KinEng   = 0.723741 Lx       = 24.641735 
Ly       = 24.641735 Lz       = 24.641735 Density  = 1.023639 
Volume   = 14962.832850 
---------------- Step  1220000 ----- CPU =    130.7913 (sec) ----------------
Time     = 6100000.000000 Temp     = 245.247022 Press    = -142.400959 
PotEng   = -10.426123 KinEng   = 0.729607 Lx       = 24.648309 
Ly       = 24.648309 Lz       = 24.648309 Density  = 1.022820 
Volume   = 14974.812935 
---------------- Step  1230000 ----- CPU =    136.8032 (sec) ----------------
Time     = 6150000.000000 Temp     = 254.731127 Press    = 534.758112 
PotEng   = -10.431433 KinEng   = 0.757822 Lx       = 24.649470 
Ly       = 24.649470 Lz       = 24.649470 Density  = 1.022675 
Volume   = 14976.927683 
---------------- Step  1240000 ----- CPU =    142.7820 (sec) ----------------
Time     = 6200000.000000 Temp     = 247.470656 Press    = -108.490191 
PotEng   = -10.454163 KinEng   = 0.736222 Lx       = 24.706884 
Ly       = 24.706884 Lz       = 24.706884 Density  = 1.015562 
Volume   = 15081.826239 
---------------- Step  1250000 ----- CPU =    148.6864 (sec) ----------------
Time     = 6250000.000000 Temp     = 237.844302 Press    = 1307.505506 
PotEng   = -10.418904 KinEng   = 0.707584 Lx       = 24.636664 
Ly       = 24.636664 Lz       = 24.636664 Density  = 1.024271 
Volume   = 14953.598372 
---------------- Step  1260000 ----- CPU =    154.6595 (sec) ----------------
Time     = 6300000.000000 Temp     = 228.441947 Press    = 1382.887228 
PotEng   = -10.408843 KinEng   = 0.679612 Lx       = 24.622168 
Ly       = 24.622168 Lz       = 24.622168 Density  = 1.026081 
Volume   = 14927.217209 
---------------- Step  1270000 ----- CPU =    160.5654 (sec) ----------------
Time     = 6350000.000000 Temp     = 248.142605 Press    = 1645.483009 
PotEng   = -10.437258 KinEng   = 0.738221 Lx       = 24.587438 
Ly       = 24.587438 Lz       = 24.587438 Density  = 1.030435 
Volume   = 14864.142287 
---------------- Step  1280000 ----- CPU =    166.5142 (sec) ----------------
Time     = 6400000.000000 Temp     = 228.945759 Press    = 2078.833640 
PotEng   = -10.411552 KinEng   = 0.681111 Lx       = 24.552679 
Ly       = 24.552679 Lz       = 24.552679 Density  = 1.034818 
Volume   = 14801.191575 
---------------- Step  1290000 ----- CPU =    172.4808 (sec) ----------------
Time     = 6450000.000000 Temp     = 238.023319 Press    = 378.078333 
PotEng   = -10.418495 KinEng   = 0.708117 Lx       = 24.669185 
Ly       = 24.669185 Lz       = 24.669185 Density  = 1.020225 
Volume   = 15012.893043 
---------------- Step  1300000 ----- CPU =    178.3620 (sec) ----------------
Time     = 6500000.000000 Temp     = 233.260942 Press    = 537.189042 
PotEng   = -10.392451 KinEng   = 0.693949 Lx       = 24.747001 
Ly       = 24.747001 Lz       = 24.747001 Density  = 1.010631 
Volume   = 15155.411003 
---------------- Step  1310000 ----- CPU =    184.2899 (sec) ----------------
Time     = 6550000.000000 Temp     = 247.367824 Press    = 290.222260 
PotEng   = -10.361052 KinEng   = 0.735916 Lx       = 24.674405 
Ly       = 24.674405 Lz       = 24.674405 Density  = 1.019578 
Volume   = 15022.426103 
---------------- Step  1320000 ----- CPU =    190.2099 (sec) ----------------
Time     = 6600000.000000 Temp     = 232.619031 Press    = 1471.061310 
PotEng   = -10.427140 KinEng   = 0.692039 Lx       = 24.568660 
Ly       = 24.568660 Lz       = 24.568660 Density  = 1.032800 
Volume   = 14830.112062 
---------------- Step  1330000 ----- CPU =    196.1327 (sec) ----------------
Time     = 6650000.000000 Temp     = 230.090249 Press    = 1621.754594 
PotEng   = -10.390290 KinEng   = 0.684516 Lx       = 24.592584 
Ly       = 24.592584 Lz       = 24.592584 Density  = 1.029788 
Volume   = 14873.476520 
---------------- Step  1340000 ----- CPU =    202.0677 (sec) ----------------
Time     = 6700000.000000 Temp     = 235.672019 Press    = 1450.801870 
PotEng   = -10.399757 KinEng   = 0.701121 Lx       = 24.664243 
Ly       = 24.664243 Lz       = 24.664243 Density  = 1.020839 
Volume   = 15003.872342 
---------------- Step  1350000 ----- CPU =    207.9233 (sec) ----------------
Time     = 6750000.000000 Temp     = 234.970406 Press    = 1711.471228 
PotEng   = -10.422270 KinEng   = 0.699034 Lx       = 24.616758 
Ly       = 24.616758 Lz       = 24.616758 Density  = 1.026758 
Volume   = 14917.380598 
---------------- Step  1360000 ----- CPU =    213.8370 (sec) ----------------
Time     = 6800000.000000 Temp     = 236.191387 Press    = 142.674757 
PotEng   = -10.458902 KinEng   = 0.702667 Lx       = 24.687896 
Ly       = 24.687896 Lz       = 24.687896 Density  = 1.017907 
Volume   = 15047.081141 
---------------- Step  1370000 ----- CPU =    219.7386 (sec) ----------------
Time     = 6850000.000000 Temp     = 240.149839 Press    = 1260.241983 
PotEng   = -10.392455 KinEng   = 0.714443 Lx       = 24.622137 
Ly       = 24.622137 Lz       = 24.622137 Density  = 1.026085 
Volume   = 14927.161963 
---------------- Step  1380000 ----- CPU =    225.6801 (sec) ----------------
Time     = 6900000.000000 Temp     = 236.137394 Press    = 494.701022 
PotEng   = -10.364745 KinEng   = 0.702506 Lx       = 24.634894 
Ly       = 24.634894 Lz       = 24.634894 Density  = 1.024492 
Volume   = 14950.374893 
---------------- Step  1390000 ----- CPU =    231.6210 (sec) ----------------
Time     = 6950000.000000 Temp     = 266.899573 Press    = 1392.217428 
PotEng   = -10.436924 KinEng   = 0.794023 Lx       = 24.603460 
Ly       = 24.603460 Lz       = 24.603460 Density  = 1.028423 
Volume   = 14893.218963 
---------------- Step  1400000 ----- CPU =    237.4754 (sec) ----------------
Time     = 7000000.000000 Temp     = 247.444694 Press    = 888.997990 
PotEng   = -10.470795 KinEng   = 0.736145 Lx       = 24.636825 
Ly       = 24.636825 Lz       = 24.636825 Density  = 1.024251 
Volume   = 14953.892081 
---------------- Step  1410000 ----- CPU =    243.3991 (sec) ----------------
Time     = 7050000.000000 Temp     = 226.530411 Press    = 668.009247 
PotEng   = -10.357784 KinEng   = 0.673925 Lx       = 24.669987 
Ly       = 24.669987 Lz       = 24.669987 Density  = 1.020126 
Volume   = 15014.358231 
---------------- Step  1420000 ----- CPU =    249.3638 (sec) ----------------
Time     = 7100000.000000 Temp     = 257.676493 Press    = 373.368070 
PotEng   = -10.391020 KinEng   = 0.766585 Lx       = 24.668877 
Ly       = 24.668877 Lz       = 24.668877 Density  = 1.020264 
Volume   = 15012.331661 
---------------- Step  1430000 ----- CPU =    255.2770 (sec) ----------------
Time     = 7150000.000000 Temp     = 241.530598 Press    = 1220.108794 
PotEng   = -10.371411 KinEng   = 0.718551 Lx       = 24.587994 
Ly       = 24.587994 Lz       = 24.587994 Density  = 1.030365 
Volume   = 14865.149879 
---------------- Step  1440000 ----- CPU =    261.2664 (sec) ----------------
Time     = 7200000.000000 Temp     = 231.572681 Press    = 1746.858309 
PotEng   = -10.387662 KinEng   = 0.688926 Lx       = 24.657276 
Ly       = 24.657276 Lz       = 24.657276 Density  = 1.021704 
Volume   = 14991.161914 
---------------- Step  1450000 ----- CPU =    267.1339 (sec) ----------------
Time     = 7250000.000000 Temp     = 254.721669 Press    = 1477.739106 
PotEng   = -10.434182 KinEng   = 0.757794 Lx       = 24.597406 
Ly       = 24.597406 Lz       = 24.597406 Density  = 1.029183 
Volume   = 14882.227556 
---------------- Step  1460000 ----- CPU =    273.0916 (sec) ----------------
Time     = 7300000.000000 Temp     = 255.226485 Press    = -162.218449 
PotEng   = -10.382234 KinEng   = 0.759296 Lx       = 24.636333 
Ly       = 24.636333 Lz       = 24.636333 Density  = 1.024312 
Volume   = 14952.994507 
---------------- Step  1470000 ----- CPU =    279.0591 (sec) ----------------
Time     = 7350000.000000 Temp     = 232.102491 Press    = 574.321514 
PotEng   = -10.419123 KinEng   = 0.690502 Lx       = 24.665185 
Ly       = 24.665185 Lz       = 24.665185 Density  = 1.020722 
Volume   = 15005.591194 
---------------- Step  1480000 ----- CPU =    284.9800 (sec) ----------------
Time     = 7400000.000000 Temp     = 236.280138 Press    = 1201.426699 
PotEng   = -10.472043 KinEng   = 0.702931 Lx       = 24.732107 
Ly       = 24.732107 Lz       = 24.732107 Density  = 1.012458 
Volume   = 15128.063983 
---------------- Step  1490000 ----- CPU =    290.9252 (sec) ----------------
Time     = 7450000.000000 Temp     = 227.857226 Press    = 1106.356172 
PotEng   = -10.376756 KinEng   = 0.677873 Lx       = 24.577644 
Ly       = 24.577644 Lz       = 24.577644 Density  = 1.031668 
Volume   = 14846.386279 
---------------- Step  1500000 ----- CPU =    296.8744 (sec) ----------------
Time     = 7500000.000000 Temp     = 219.871562 Press    = 557.331114 
PotEng   = -10.444992 KinEng   = 0.654115 Lx       = 24.638666 
Ly       = 24.638666 Lz       = 24.638666 Density  = 1.024021 
Volume   = 14957.243079 
---------------- Step  1510000 ----- CPU =    302.7736 (sec) ----------------
Time     = 7550000.000000 Temp     = 241.275269 Press    = 594.134485 
PotEng   = -10.390212 KinEng   = 0.717791 Lx       = 24.670881 
Ly       = 24.670881 Lz       = 24.670881 Density  = 1.020015 
Volume   = 15015.990976 
---------------- Step  1520000 ----- CPU =    308.7035 (sec) ----------------
Time     = 7600000.000000 Temp     = 243.726824 Press    = -217.140897 
PotEng   = -10.419892 KinEng   = 0.725084 Lx       = 24.783591 
Ly       = 24.783591 Lz       = 24.783591 Density  = 1.006162 
Volume   = 15222.735033 
---------------- Step  1530000 ----- CPU =    314.6049 (sec) ----------------
Time     = 7650000.000000 Temp     = 242.423042 Press    = 725.723277 
PotEng   = -10.365402 KinEng   = 0.721206 Lx       = 24.618270 
Ly       = 24.618270 Lz       = 24.618270 Density  = 1.026568 
Volume   = 14920.129377 
---------------- Step  1540000 ----- CPU =    320.4984 (sec) ----------------
Time     = 7700000.000000 Temp     = 221.387109 Press    = 355.209383 
PotEng   = -10.423920 KinEng   = 0.658624 Lx       = 24.679467 
Ly       = 24.679467 Lz       = 24.679467 Density  = 1.018951 
Volume   = 15031.673038 
---------------- Step  1550000 ----- CPU =    326.4011 (sec) ----------------
Time     = 7750000.000000 Temp     = 236.485615 Press    = 915.202148 
PotEng   = -10.432977 KinEng   = 0.703542 Lx       = 24.627038 
Ly       = 24.627038 Lz       = 24.627038 Density  = 1.025472 
Volume   = 14936.076416 
---------------- Step  1560000 ----- CPU =    332.3046 (sec) ----------------
Time     = 7800000.000000 Temp     = 237.765940 Press    = 878.875194 
PotEng   = -10.451347 KinEng   = 0.707351 Lx       = 24.769270 
Ly       = 24.769270 Lz       = 24.769270 Density  = 1.007908 
Volume   = 15196.361146 
---------------- Step  1570000 ----- CPU =    338.1772 (sec) ----------------
Time     = 7850000.000000 Temp     = 233.670956 Press    = 1700.864181 
PotEng   = -10.414178 KinEng   = 0.695168 Lx       = 24.568287 
Ly       = 24.568287 Lz       = 24.568287 Density  = 1.032847 
Volume   = 14829.435867 
---------------- Step  1580000 ----- CPU =    344.1745 (sec) ----------------
Time     = 7900000.000000 Temp     = 235.068938 Press    = 1608.519181 
PotEng   = -10.409818 KinEng   = 0.699327 Lx       = 24.621432 
Ly       = 24.621432 Lz       = 24.621432 Density  = 1.026173 
Volume   = 14925.878971 
---------------- Step  1590000 ----- CPU =    350.0055 (sec) ----------------
Time     = 7950000.000000 Temp     = 242.178994 Press    = 98.483007 
PotEng   = -10.393453 KinEng   = 0.720480 Lx       = 24.745344 
Ly       = 24.745344 Lz       = 24.745344 Density  = 1.010834 
Volume   = 15152.367045 
---------------- Step  1600000 ----- CPU =    355.8929 (sec) ----------------
Time     = 8000000.000000 Temp     = 227.978661 Press    = 1337.791844 
PotEng   = -10.453737 KinEng   = 0.678234 Lx       = 24.628302 
Ly       = 24.628302 Lz       = 24.628302 Density  = 1.025314 
Volume   = 14938.377322 
---------------- Step  1610000 ----- CPU =    361.8034 (sec) ----------------
Time     = 8050000.000000 Temp     = 241.708061 Press    = 699.393336 
PotEng   = -10.427528 KinEng   = 0.719079 Lx       = 24.603538 
Ly       = 24.603538 Lz       = 24.603538 Density  = 1.028414 
Volume   = 14893.360105 
---------------- Step  1620000 ----- CPU =    367.6891 (sec) ----------------
Time     = 8100000.000000 Temp     = 221.093914 Press    = 783.521262 
PotEng   = -10.452217 KinEng   = 0.657752 Lx       = 24.666802 
Ly       = 24.666802 Lz       = 24.666802 Density  = 1.020521 
Volume   = 15008.542630 
---------------- Step  1630000 ----- CPU =    373.5853 (sec) ----------------
Time     = 8150000.000000 Temp     = 242.249631 Press    = 1396.203679 
PotEng   = -10.381758 KinEng   = 0.720690 Lx       = 24.617349 
Ly       = 24.617349 Lz       = 24.617349 Density  = 1.026684 
Volume   = 14918.454589 
---------------- Step  1640000 ----- CPU =    379.5716 (sec) ----------------
Time     = 8200000.000000 Temp     = 230.587628 Press    = 1173.551947 
PotEng   = -10.390686 KinEng   = 0.685995 Lx       = 24.636096 
Ly       = 24.636096 Lz       = 24.636096 Density  = 1.024342 
Volume   = 14952.563220 
---------------- Step  1650000 ----- CPU =    385.5377 (sec) ----------------
Time     = 8250000.000000 Temp     = 247.827678 Press    = -339.367930 
PotEng   = -10.424305 KinEng   = 0.737284 Lx       = 24.727692 
Ly       = 24.727692 Lz       = 24.727692 Density  = 1.013001 
Volume   = 15119.963706 
---------------- Step  1660000 ----- CPU =    391.4670 (sec) ----------------
Time     = 8300000.000000 Temp     = 244.466177 Press    = 910.853014 
PotEng   = -10.407424 KinEng   = 0.727284 Lx       = 24.718026 
Ly       = 24.718026 Lz       = 24.718026 Density  = 1.014190 
Volume   = 15102.239812 
---------------- Step  1670000 ----- CPU =    397.3854 (sec) ----------------
Time     = 8350000.000000 Temp     = 236.057843 Press    = 1037.225877 
PotEng   = -10.411220 KinEng   = 0.702269 Lx       = 24.681020 
Ly       = 24.681020 Lz       = 24.681020 Density  = 1.018758 
Volume   = 15034.510831 
---------------- Step  1680000 ----- CPU =    403.3879 (sec) ----------------
Time     = 8400000.000000 Temp     = 239.665264 Press    = 866.649498 
PotEng   = -10.366927 KinEng   = 0.713001 Lx       = 24.616806 
Ly       = 24.616806 Lz       = 24.616806 Density  = 1.026752 
Volume   = 14917.468712 
---------------- Step  1690000 ----- CPU =    409.2961 (sec) ----------------
Time     = 8450000.000000 Temp     = 241.555209 Press    = 1389.141839 
PotEng   = -10.391722 KinEng   = 0.718624 Lx       = 24.583072 
Ly       = 24.583072 Lz       = 24.583072 Density  = 1.030984 
Volume   = 14856.224404 
---------------- Step  1700000 ----- CPU =    415.2342 (sec) ----------------
Time     = 8500000.000000 Temp     = 236.168440 Press    = 983.616499 
PotEng   = -10.388481 KinEng   = 0.702598 Lx       = 24.596651 
Ly       = 24.596651 Lz       = 24.596651 Density  = 1.029278 
Volume   = 14880.857420 
---------------- Step  1710000 ----- CPU =    421.1344 (sec) ----------------
Time     = 8550000.000000 Temp     = 233.294520 Press    = 1268.173869 
PotEng   = -10.423497 KinEng   = 0.694048 Lx       = 24.657272 
Ly       = 24.657272 Lz       = 24.657272 Density  = 1.021705 
Volume   = 14991.154625 
---------------- Step  1720000 ----- CPU =    427.0828 (sec) ----------------
Time     = 8600000.000000 Temp     = 253.007462 Press    = 1865.986160 
PotEng   = -10.437248 KinEng   = 0.752694 Lx       = 24.593692 
Ly       = 24.593692 Lz       = 24.593692 Density  = 1.029649 
Volume   = 14875.487401 
---------------- Step  1730000 ----- CPU =    433.0256 (sec) ----------------
Time     = 8650000.000000 Temp     = 233.913705 Press    = 156.821038 
PotEng   = -10.469447 KinEng   = 0.695891 Lx       = 24.740730 
Ly       = 24.740730 Lz       = 24.740730 Density  = 1.011400 
Volume   = 15143.892967 
---------------- Step  1740000 ----- CPU =    438.9886 (sec) ----------------
Time     = 8700000.000000 Temp     = 227.938924 Press    = 948.343860 
PotEng   = -10.403213 KinEng   = 0.678116 Lx       = 24.646137 
Ly       = 24.646137 Lz       = 24.646137 Density  = 1.023090 
Volume   = 14970.853915 
---------------- Step  1750000 ----- CPU =    444.9004 (sec) ----------------
Time     = 8750000.000000 Temp     = 244.540233 Press    = 166.690374 
PotEng   = -10.430295 KinEng   = 0.727504 Lx       = 24.711499 
Ly       = 24.711499 Lz       = 24.711499 Density  = 1.014993 
Volume   = 15090.278634 
---------------- Step  1760000 ----- CPU =    450.7932 (sec) ----------------
Time     = 8800000.000000 Temp     = 233.033208 Press    = 662.684260 
PotEng   = -10.324745 KinEng   = 0.693271 Lx       = 24.649756 
Ly       = 24.649756 Lz       = 24.649756 Density  = 1.022640 
Volume   = 14977.449070 
---------------- Step  1770000 ----- CPU =    456.7628 (sec) ----------------
Time     = 8850000.000000 Temp     = 239.832654 Press    = 1968.149612 
PotEng   = -10.404304 KinEng   = 0.713499 Lx       = 24.669812 
Ly       = 24.669812 Lz       = 24.669812 Density  = 1.020148 
Volume   = 15014.038922 
---------------- Step  1780000 ----- CPU =    462.6656 (sec) ----------------
Time     = 8900000.000000 Temp     = 241.047713 Press    = 918.040145 
PotEng   = -10.419404 KinEng   = 0.717114 Lx       = 24.666465 
Ly       = 24.666465 Lz       = 24.666465 Density  = 1.020563 
Volume   = 15007.928817 
---------------- Step  1790000 ----- CPU =    468.5851 (sec) ----------------
Time     = 8950000.000000 Temp     = 247.855711 Press    = 682.386150 
PotEng   = -10.394459 KinEng   = 0.737368 Lx       = 24.693393 
Ly       = 24.693393 Lz       = 24.693393 Density  = 1.017228 
Volume   = 15057.133912 
---------------- Step  1800000 ----- CPU =    474.5109 (sec) ----------------
Time     = 9000000.000000 Temp     = 236.373793 Press    = 1494.608792 
PotEng   = -10.474042 KinEng   = 0.703209 Lx       = 24.586725 
Ly       = 24.586725 Lz       = 24.586725 Density  = 1.030525 
Volume   = 14862.849063 
---------------- Step  1810000 ----- CPU =    480.4188 (sec) ----------------
Time     = 9050000.000000 Temp     = 240.659190 Press    = 415.192619 
PotEng   = -10.409813 KinEng   = 0.715958 Lx       = 24.729857 
Ly       = 24.729857 Lz       = 24.729857 Density  = 1.012735 
Volume   = 15123.934805 
---------------- Step  1820000 ----- CPU =    486.2882 (sec) ----------------
Time     = 9100000.000000 Temp     = 228.587251 Press    = 333.851553 
PotEng   = -10.440836 KinEng   = 0.680044 Lx       = 24.630774 
Ly       = 24.630774 Lz       = 24.630774 Density  = 1.025006 
Volume   = 14942.874970 
---------------- Step  1830000 ----- CPU =    492.1720 (sec) ----------------
Time     = 9150000.000000 Temp     = 243.177534 Press    = 1036.975414 
PotEng   = -10.433101 KinEng   = 0.723450 Lx       = 24.694036 
Ly       = 24.694036 Lz       = 24.694036 Density  = 1.017148 
Volume   = 15058.309563 
---------------- Step  1840000 ----- CPU =    498.1040 (sec) ----------------
Time     = 9200000.000000 Temp     = 237.535950 Press    = 862.795417 
PotEng   = -10.421172 KinEng   = 0.706667 Lx       = 24.694524 
Ly       = 24.694524 Lz       = 24.694524 Density  = 1.017088 
Volume   = 15059.202067 
---------------- Step  1850000 ----- CPU =    503.9831 (sec) ----------------
Time     = 9250000.000000 Temp     = 238.461689 Press    = 1836.189605 
PotEng   = -10.414273 KinEng   = 0.709421 Lx       = 24.602583 
Ly       = 24.602583 Lz       = 24.602583 Density  = 1.028533 
Volume   = 14891.626410 
---------------- Step  1860000 ----- CPU =    509.9527 (sec) ----------------
Time     = 9300000.000000 Temp     = 239.906534 Press    = 100.218444 
PotEng   = -10.405889 KinEng   = 0.713719 Lx       = 24.721534 
Ly       = 24.721534 Lz       = 24.721534 Density  = 1.013758 
Volume   = 15108.671321 
---------------- Step  1870000 ----- CPU =    515.8879 (sec) ----------------
Time     = 9350000.000000 Temp     = 231.949651 Press    = 1118.129297 
PotEng   = -10.388153 KinEng   = 0.690047 Lx       = 24.695100 
Ly       = 24.695100 Lz       = 24.695100 Density  = 1.017017 
Volume   = 15060.256899 
---------------- Step  1880000 ----- CPU =    521.8130 (sec) ----------------
Time     = 9400000.000000 Temp     = 227.227011 Press    = 1283.251600 
PotEng   = -10.442623 KinEng   = 0.675998 Lx       = 24.632591 
Ly       = 24.632591 Lz       = 24.632591 Density  = 1.024779 
Volume   = 14946.182028 
---------------- Step  1890000 ----- CPU =    527.6899 (sec) ----------------
Time     = 9450000.000000 Temp     = 250.742020 Press    = 551.912831 
PotEng   = -10.462790 KinEng   = 0.745955 Lx       = 24.661635 
Ly       = 24.661635 Lz       = 24.661635 Density  = 1.021163 
Volume   = 14999.113487 
---------------- Step  1900000 ----- CPU =    533.6562 (sec) ----------------
Time     = 9500000.000000 Temp     = 230.885262 Press    = 322.560483 
PotEng   = -10.356377 KinEng   = 0.686881 Lx       = 24.713698 
Ly       = 24.713698 Lz       = 24.713698 Density  = 1.014723 
Volume   = 15094.308002 
---------------- Step  1910000 ----- CPU =    539.5573 (sec) ----------------
Time     = 9550000.000000 Temp     = 241.865952 Press    = 1154.238643 
PotEng   = -10.405868 KinEng   = 0.719548 Lx       = 24.688818 
Ly       = 24.688818 Lz       = 24.688818 Density  = 1.017793 
Volume   = 15048.765985 
---------------- Step  1920000 ----- CPU =    545.4618 (sec) ----------------
Time     = 9600000.000000 Temp     = 241.561331 Press    = 312.745313 
PotEng   = -10.407413 KinEng   = 0.718642 Lx       = 24.619361 
Ly       = 24.619361 Lz       = 24.619361 Density  = 1.026432 
Volume   = 14922.112681 
---------------- Step  1930000 ----- CPU =    551.3842 (sec) ----------------
Time     = 9650000.000000 Temp     = 242.128928 Press    = 1704.892460 
PotEng   = -10.406129 KinEng   = 0.720331 Lx       = 24.599950 
Ly       = 24.599950 Lz       = 24.599950 Density  = 1.028864 
Volume   = 14886.845068 
---------------- Step  1940000 ----- CPU =    557.3511 (sec) ----------------
Time     = 9700000.000000 Temp     = 253.126991 Press    = 314.400523 
PotEng   = -10.390059 KinEng   = 0.753050 Lx       = 24.692695 
Ly       = 24.692695 Lz       = 24.692695 Density  = 1.017314 
Volume   = 15055.856119 
---------------- Step  1950000 ----- CPU =    563.3045 (sec) ----------------
Time     = 9750000.000000 Temp     = 242.619920 Press    = 358.636783 
PotEng   = -10.464311 KinEng   = 0.721791 Lx       = 24.682953 
Ly       = 24.682953 Lz       = 24.682953 Density  = 1.018519 
Volume   = 15038.043154 
---------------- Step  1960000 ----- CPU =    569.1967 (sec) ----------------
Time     = 9800000.000000 Temp     = 238.333764 Press    = 1589.770589 
PotEng   = -10.385719 KinEng   = 0.709040 Lx       = 24.648362 
Ly       = 24.648362 Lz       = 24.648362 Density  = 1.022813 
Volume   = 14974.909025 
---------------- Step  1970000 ----- CPU =    575.1546 (sec) ----------------
Time     = 9850000.000000 Temp     = 232.687994 Press    = 990.611220 
PotEng   = -10.441016 KinEng   = 0.692244 Lx       = 24.645718 
Ly       = 24.645718 Lz       = 24.645718 Density  = 1.023142 
Volume   = 14970.089707 
---------------- Step  1980000 ----- CPU =    581.1479 (sec) ----------------
Time     = 9900000.000000 Temp     = 240.078580 Press    = 766.961704 
PotEng   = -10.364481 KinEng   = 0.714231 Lx       = 24.612538 
Ly       = 24.612538 Lz       = 24.612538 Density  = 1.027286 
Volume   = 14909.710274 
---------------- Step  1990000 ----- CPU =    587.1295 (sec) ----------------
Time     = 9950000.000000 Temp     = 248.937290 Press    = 2375.619472 
PotEng   = -10.431481 KinEng   = 0.740585 Lx       = 24.619390 
Ly       = 24.619390 Lz       = 24.619390 Density  = 1.026428 
Volume   = 14922.165127 
---------------- Step  2000000 ----- CPU =    593.0312 (sec) ----------------
Time     = 10000000.000000 Temp     = 226.571543 Press    = 282.225300 
PotEng   = -10.377019 KinEng   = 0.674048 Lx       = 24.706504 
Ly       = 24.706504 Lz       = 24.706504 Density  = 1.015609 
Volume   = 15081.130779 
---------------- Step  2010000 ----- CPU =    598.9265 (sec) ----------------
Time     = 10050000.000000 Temp     = 237.484576 Press    = 703.473784 
PotEng   = -10.354662 KinEng   = 0.706514 Lx       = 24.568042 
Ly       = 24.568042 Lz       = 24.568042 Density  = 1.032878 
Volume   = 14828.992558 
---------------- Step  2020000 ----- CPU =    604.8276 (sec) ----------------
Time     = 10100000.000000 Temp     = 245.568268 Press    = 1218.142766 
PotEng   = -10.401287 KinEng   = 0.730563 Lx       = 24.657668 
Ly       = 24.657668 Lz       = 24.657668 Density  = 1.021656 
Volume   = 14991.877294 
---------------- Step  2030000 ----- CPU =    610.7264 (sec) ----------------
Time     = 10150000.000000 Temp     = 261.098420 Press    = 521.247941 
PotEng   = -10.408837 KinEng   = 0.776765 Lx       = 24.642984 
Ly       = 24.642984 Lz       = 24.642984 Density  = 1.023483 
Volume   = 14965.109149 
---------------- Step  2040000 ----- CPU =    616.6688 (sec) ----------------
Time     = 10200000.000000 Temp     = 244.535547 Press    = 1182.734762 
PotEng   = -10.414143 KinEng   = 0.727490 Lx       = 24.693142 
Ly       = 24.693142 Lz       = 24.693142 Density  = 1.017259 
Volume   = 15056.675296 
---------------- Step  2050000 ----- CPU =    622.5640 (sec) ----------------
Time     = 10250000.000000 Temp     = 259.535896 Press    = -422.953861 
PotEng   = -10.396575 KinEng   = 0.772116 Lx       = 24.774403 
Ly       = 24.774403 Lz       = 24.774403 Density  = 1.007282 
Volume   = 15205.811995 
---------------- Step  2060000 ----- CPU =    628.4800 (sec) ----------------
Time     = 10300000.000000 Temp     = 227.331114 Press    = 1857.601406 
PotEng   = -10.420199 KinEng   = 0.676307 Lx       = 24.545769 
Ly       = 24.545769 Lz       = 24.545769 Density  = 1.035692 
Volume   = 14788.697894 
---------------- Step  2070000 ----- CPU =    634.3741 (sec) ----------------
Time     = 10350000.000000 Temp     = 234.663202 Press    = 854.684986 
PotEng   = -10.437727 KinEng   = 0.698120 Lx       = 24.632356 
Ly       = 24.632356 Lz       = 24.632356 Density  = 1.024808 
Volume   = 14945.754591 
---------------- Step  2080000 ----- CPU =    640.3537 (sec) ----------------
Time     = 10400000.000000 Temp     = 243.321442 Press    = 1893.254943 
PotEng   = -10.388321 KinEng   = 0.723878 Lx       = 24.657290 
Ly       = 24.657290 Lz       = 24.657290 Density  = 1.021703 
Volume   = 14991.187756 
---------------- Step  2090000 ----- CPU =    646.3078 (sec) ----------------
Time     = 10450000.000000 Temp     = 247.306543 Press    = -453.016744 
PotEng   = -10.366754 KinEng   = 0.735734 Lx       = 24.798354 
Ly       = 24.798354 Lz       = 24.798354 Density  = 1.004366 
Volume   = 15249.954686 
---------------- Step  2100000 ----- CPU =    652.2351 (sec) ----------------
Time     = 10500000.000000 Temp     = 233.514525 Press    = 974.388743 
PotEng   = -10.422431 KinEng   = 0.694703 Lx       = 24.686156 
Ly       = 24.686156 Lz       = 24.686156 Density  = 1.018123 
Volume   = 15043.899627 
---------------- Step  2110000 ----- CPU =    658.1437 (sec) ----------------
Time     = 10550000.000000 Temp     = 227.363852 Press    = 834.141455 
PotEng   = -10.359419 KinEng   = 0.676405 Lx       = 24.685828 
Ly       = 24.685828 Lz       = 24.685828 Density  = 1.018163 
Volume   = 15043.298737 
---------------- Step  2120000 ----- CPU =    664.1117 (sec) ----------------
Time     = 10600000.000000 Temp     = 236.016146 Press    = 1286.552628 
PotEng   = -10.461441 KinEng   = 0.702145 Lx       = 24.677938 
Ly       = 24.677938 Lz       = 24.677938 Density  = 1.019140 
Volume   = 15028.879086 
---------------- Step  2130000 ----- CPU =    670.0005 (sec) ----------------
Time     = 10650000.000000 Temp     = 240.551598 Press    = 1202.332266 
PotEng   = -10.408667 KinEng   = 0.715638 Lx       = 24.669289 
Ly       = 24.669289 Lz       = 24.669289 Density  = 1.020212 
Volume   = 15013.084299 
---------------- Step  2140000 ----- CPU =    675.9125 (sec) ----------------
Time     = 10700000.000000 Temp     = 233.437751 Press    = 873.248423 
PotEng   = -10.331018 KinEng   = 0.694475 Lx       = 24.721006 
Ly       = 24.721006 Lz       = 24.721006 Density  = 1.013823 
Volume   = 15107.701969 
---------------- Step  2150000 ----- CPU =    681.8444 (sec) ----------------
Time     = 10750000.000000 Temp     = 252.354854 Press    = 1620.266517 
PotEng   = -10.447294 KinEng   = 0.750753 Lx       = 24.623415 
Ly       = 24.623415 Lz       = 24.623415 Density  = 1.025925 
Volume   = 14929.485749 
---------------- Step  2160000 ----- CPU =    687.8103 (sec) ----------------
Time     = 10800000.000000 Temp     = 246.338729 Press    = 520.192842 
PotEng   = -10.396601 KinEng   = 0.732855 Lx       = 24.672157 
Ly       = 24.672157 Lz       = 24.672157 Density  = 1.019857 
Volume   = 15018.320614 
---------------- Step  2170000 ----- CPU =    693.7459 (sec) ----------------
Time     = 10850000.000000 Temp     = 244.284232 Press    = 1663.753834 
PotEng   = -10.399524 KinEng   = 0.726743 Lx       = 24.607360 
Ly       = 24.607360 Lz       = 24.607360 Density  = 1.027934 
Volume   = 14900.302692 
---------------- Step  2180000 ----- CPU =    699.7054 (sec) ----------------
Time     = 10900000.000000 Temp     = 256.554443 Press    = 1054.000773 
PotEng   = -10.531673 KinEng   = 0.763246 Lx       = 24.635867 
Ly       = 24.635867 Lz       = 24.635867 Density  = 1.024370 
Volume   = 14952.147045 
---------------- Step  2190000 ----- CPU =    705.6973 (sec) ----------------
Time     = 10950000.000000 Temp     = 238.420545 Press    = 1190.791455 
PotEng   = -10.389785 KinEng   = 0.709298 Lx       = 24.553211 
Ly       = 24.553211 Lz       = 24.553211 Density  = 1.034751 
Volume   = 14802.152250 
---------------- Step  2200000 ----- CPU =    711.6064 (sec) ----------------
Time     = 11000000.000000 Temp     = 246.123672 Press    = 2369.024541 
PotEng   = -10.401969 KinEng   = 0.732215 Lx       = 24.588809 
Ly       = 24.588809 Lz       = 24.588809 Density  = 1.030263 
Volume   = 14866.628426 
---------------- Step  2210000 ----- CPU =    717.5389 (sec) ----------------
Time     = 11050000.000000 Temp     = 241.600567 Press    = 1331.122587 
PotEng   = -10.411592 KinEng   = 0.718759 Lx       = 24.555962 
Ly       = 24.555962 Lz       = 24.555962 Density  = 1.034403 
Volume   = 14807.129146 
---------------- Step  2220000 ----- CPU =    723.5005 (sec) ----------------
Time     = 11100000.000000 Temp     = 235.294209 Press    = 795.159528 
PotEng   = -10.351418 KinEng   = 0.699997 Lx       = 24.608524 
Ly       = 24.608524 Lz       = 24.608524 Density  = 1.027789 
Volume   = 14902.416010 
---------------- Step  2230000 ----- CPU =    729.4570 (sec) ----------------
Time     = 11150000.000000 Temp     = 261.539338 Press    = 521.078361 
PotEng   = -10.337580 KinEng   = 0.778076 Lx       = 24.601620 
Ly       = 24.601620 Lz       = 24.601620 Density  = 1.028654 
Volume   = 14889.876943 
---------------- Step  2240000 ----- CPU =    735.3834 (sec) ----------------
Time     = 11200000.000000 Temp     = 244.315319 Press    = 94.512396 
PotEng   = -10.437252 KinEng   = 0.726835 Lx       = 24.706365 
Ly       = 24.706365 Lz       = 24.706365 Density  = 1.015626 
Volume   = 15080.875739 
---------------- Step  2250000 ----- CPU =    741.3034 (sec) ----------------
Time     = 11250000.000000 Temp     = 238.470988 Press    = -71.553329 
PotEng   = -10.417216 KinEng   = 0.709448 Lx       = 24.667694 
Ly       = 24.667694 Lz       = 24.667694 Density  = 1.020410 
Volume   = 15010.170696 
---------------- Step  2260000 ----- CPU =    747.2107 (sec) ----------------
Time     = 11300000.000000 Temp     = 231.376099 Press    = 886.494072 
PotEng   = -10.394686 KinEng   = 0.688341 Lx       = 24.695482 
Ly       = 24.695482 Lz       = 24.695482 Density  = 1.016970 
Volume   = 15060.955018 
---------------- Step  2270000 ----- CPU =    753.0957 (sec) ----------------
Time     = 11350000.000000 Temp     = 234.993934 Press    = 1097.417097 
PotEng   = -10.360100 KinEng   = 0.699104 Lx       = 24.575597 
Ly       = 24.575597 Lz       = 24.575597 Density  = 1.031925 
Volume   = 14842.677524 
---------------- Step  2280000 ----- CPU =    759.0756 (sec) ----------------
Time     = 11400000.000000 Temp     = 236.026767 Press    = -308.541686 
PotEng   = -10.492476 KinEng   = 0.702177 Lx       = 24.606913 
Ly       = 24.606913 Lz       = 24.606913 Density  = 1.027991 
Volume   = 14899.490019 
---------------- Step  2290000 ----- CPU =    765.0028 (sec) ----------------
Time     = 11450000.000000 Temp     = 248.597605 Press    = 1371.135506 
PotEng   = -10.351748 KinEng   = 0.739575 Lx       = 24.538158 
Ly       = 24.538158 Lz       = 24.538158 Density  = 1.036656 
Volume   = 14774.944882 
---------------- Step  2300000 ----- CPU =    770.9697 (sec) ----------------
Time     = 11500000.000000 Temp     = 248.579545 Press    = 1350.452979 
PotEng   = -10.380525 KinEng   = 0.739521 Lx       = 24.629996 
Ly       = 24.629996 Lz       = 24.629996 Density  = 1.025103 
Volume   = 14941.459242 
---------------- Step  2310000 ----- CPU =    776.9056 (sec) ----------------
Time     = 11550000.000000 Temp     = 238.562505 Press    = 1886.907528 
PotEng   = -10.431365 KinEng   = 0.709721 Lx       = 24.524419 
Ly       = 24.524419 Lz       = 24.524419 Density  = 1.038399 
Volume   = 14750.140985 
---------------- Step  2320000 ----- CPU =    782.8604 (sec) ----------------
Time     = 11600000.000000 Temp     = 226.555971 Press    = 694.411671 
PotEng   = -10.417411 KinEng   = 0.674001 Lx       = 24.619106 
Ly       = 24.619106 Lz       = 24.619106 Density  = 1.026464 
Volume   = 14921.648930 
---------------- Step  2330000 ----- CPU =    788.7982 (sec) ----------------
Time     = 11650000.000000 Temp     = 266.618368 Press    = 1708.919320 
PotEng   = -10.406696 KinEng   = 0.793186 Lx       = 24.705628 
Ly       = 24.705628 Lz       = 24.705628 Density  = 1.015717 
Volume   = 15079.525769 
---------------- Step  2340000 ----- CPU =    794.6597 (sec) ----------------
Time     = 11700000.000000 Temp     = 235.935567 Press    = 1255.995674 
PotEng   = -10.449442 KinEng   = 0.701906 Lx       = 24.661014 
Ly       = 24.661014 Lz       = 24.661014 Density  = 1.021240 
Volume   = 14997.980460 
---------------- Step  2350000 ----- CPU =    800.5957 (sec) ----------------
Time     = 11750000.000000 Temp     = 224.084066 Press    = 588.779223 
PotEng   = -10.359183 KinEng   = 0.666647 Lx       = 24.621729 
Ly       = 24.621729 Lz       = 24.621729 Density  = 1.026136 
Volume   = 14926.420278 
---------------- Step  2360000 ----- CPU =    806.5022 (sec) ----------------
Time     = 11800000.000000 Temp     = 230.670932 Press    = 1469.458744 
PotEng   = -10.432516 KinEng   = 0.686243 Lx       = 24.601022 
Ly       = 24.601022 Lz       = 24.601022 Density  = 1.028729 
Volume   = 14888.791885 
---------------- Step  2370000 ----- CPU =    812.4489 (sec) ----------------
Time     = 11850000.000000 Temp     = 246.926200 Press    = 51.503080 
PotEng   = -10.459067 KinEng   = 0.734603 Lx       = 24.720169 
Ly       = 24.720169 Lz       = 24.720169 Density  = 1.013926 
Volume   = 15106.167695 
---------------- Step  2380000 ----- CPU =    818.4139 (sec) ----------------
Time     = 11900000.000000 Temp     = 247.195389 Press    = 710.494390 
PotEng   = -10.375287 KinEng   = 0.735403 Lx       = 24.600603 
Ly       = 24.600603 Lz       = 24.600603 Density  = 1.028782 
Volume   = 14888.031055 
---------------- Step  2390000 ----- CPU =    824.2935 (sec) ----------------
Time     = 11950000.000000 Temp     = 247.919235 Press    = 1236.763921 
PotEng   = -10.306932 KinEng   = 0.737557 Lx       = 24.665761 
Ly       = 24.665761 Lz       = 24.665761 Density  = 1.020650 
Volume   = 15006.644015 
---------------- Step  2400000 ----- CPU =    830.2181 (sec) ----------------
Time     = 12000000.000000 Temp     = 240.054013 Press    = 1128.865675 
PotEng   = -10.341236 KinEng   = 0.714158 Lx       = 24.689265 
Ly       = 24.689265 Lz       = 24.689265 Density  = 1.017738 
Volume   = 15049.584250 
---------------- Step  2410000 ----- CPU =    836.1006 (sec) ----------------
Time     = 12050000.000000 Temp     = 254.944008 Press    = 1524.073475 
PotEng   = -10.424467 KinEng   = 0.758455 Lx       = 24.603913 
Ly       = 24.603913 Lz       = 24.603913 Density  = 1.028367 
Volume   = 14894.041206 
---------------- Step  2420000 ----- CPU =    842.0027 (sec) ----------------
Time     = 12100000.000000 Temp     = 238.245543 Press    = 555.612451 
PotEng   = -10.423761 KinEng   = 0.708778 Lx       = 24.680866 
Ly       = 24.680866 Lz       = 24.680866 Density  = 1.018777 
Volume   = 15034.230365 
---------------- Step  2430000 ----- CPU =    847.9754 (sec) ----------------
Time     = 12150000.000000 Temp     = 237.433077 Press    = 1259.945310 
PotEng   = -10.373534 KinEng   = 0.706361 Lx       = 24.598364 
Ly       = 24.598364 Lz       = 24.598364 Density  = 1.029063 
Volume   = 14883.965945 
---------------- Step  2440000 ----- CPU =    853.8858 (sec) ----------------
Time     = 12200000.000000 Temp     = 237.564160 Press    = 37.019403 
PotEng   = -10.379827 KinEng   = 0.706751 Lx       = 24.745727 
Ly       = 24.745727 Lz       = 24.745727 Density  = 1.010787 
Volume   = 15153.071618 
---------------- Step  2450000 ----- CPU =    859.7918 (sec) ----------------
Time     = 12250000.000000 Temp     = 240.669731 Press    = 1832.837834 
PotEng   = -10.413279 KinEng   = 0.715990 Lx       = 24.593244 
Ly       = 24.593244 Lz       = 24.593244 Density  = 1.029706 
Volume   = 14874.673807 
---------------- Step  2460000 ----- CPU =    865.7286 (sec) ----------------
Time     = 12300000.000000 Temp     = 242.715103 Press    = 1085.093738 
PotEng   = -10.393362 KinEng   = 0.722075 Lx       = 24.657069 
Ly       = 24.657069 Lz       = 24.657069 Density  = 1.021730 
Volume   = 14990.784659 
---------------- Step  2470000 ----- CPU =    871.6639 (sec) ----------------
Time     = 12350000.000000 Temp     = 238.945718 Press    = 1160.277383 
PotEng   = -10.411315 KinEng   = 0.710861 Lx       = 24.624180 
Ly       = 24.624180 Lz       = 24.624180 Density  = 1.025829 
Volume   = 14930.878107 
---------------- Step  2480000 ----- CPU =    877.5507 (sec) ----------------
Time     = 12400000.000000 Temp     = 226.982305 Press    = 1304.058081 
PotEng   = -10.429680 KinEng   = 0.675270 Lx       = 24.633704 
Ly       = 24.633704 Lz       = 24.633704 Density  = 1.024640 
Volume   = 14948.208311 
---------------- Step  2490000 ----- CPU =    883.4761 (sec) ----------------
Time     = 12450000.000000 Temp     = 228.099141 Press    = 1284.692670 
PotEng   = -10.358636 KinEng   = 0.678592 Lx       = 24.683496 
Ly       = 24.683496 Lz       = 24.683496 Density  = 1.018452 
Volume   = 15039.035960 
---------------- Step  2500000 ----- CPU =    889.3700 (sec) ----------------
Time     = 12500000.000000 Temp     = 248.245316 Press    = 1084.918332 
PotEng   = -10.442072 KinEng   = 0.738527 Lx       = 24.672603 
Ly       = 24.672603 Lz       = 24.672603 Density  = 1.019801 
Volume   = 15019.133797 
---------------- Step  2510000 ----- CPU =    895.2564 (sec) ----------------
Time     = 12550000.000000 Temp     = 234.297200 Press    = 1171.767018 
PotEng   = -10.377790 KinEng   = 0.697031 Lx       = 24.651967 
Ly       = 24.651967 Lz       = 24.651967 Density  = 1.022365 
Volume   = 14981.480004 
[...]
Ly       = 24.662057 Lz       = 24.662057 Density  = 1.021110 
Volume   = 14999.883699 
---------------- Step  4390000 ----- CPU =   2011.4949 (sec) ----------------
Time     = 21950000.000000 Temp     = 247.394277 Press    = 2308.259005 
PotEng   = -10.372960 KinEng   = 0.735995 Lx       = 24.651831 
Ly       = 24.651831 Lz       = 24.651831 Density  = 1.022381 
Volume   = 14981.232608 
---------------- Step  4400000 ----- CPU =   2017.4090 (sec) ----------------
Time     = 22000000.000000 Temp     = 236.678381 Press    = 1112.246636 
PotEng   = -10.391230 KinEng   = 0.704115 Lx       = 24.613517 
Ly       = 24.613517 Lz       = 24.613517 Density  = 1.027163 
Volume   = 14911.488560 
---------------- Step  4410000 ----- CPU =   2023.3594 (sec) ----------------
Time     = 22050000.000000 Temp     = 241.138302 Press    = 595.764894 
PotEng   = -10.523973 KinEng   = 0.717384 Lx       = 24.667267 
Ly       = 24.667267 Lz       = 24.667267 Density  = 1.020463 
Volume   = 15009.392578 
---------------- Step  4420000 ----- CPU =   2029.3081 (sec) ----------------
Time     = 22100000.000000 Temp     = 234.452513 Press    = 826.970408 
PotEng   = -10.442322 KinEng   = 0.697493 Lx       = 24.614958 
Ly       = 24.614958 Lz       = 24.614958 Density  = 1.026983 
Volume   = 14914.108187 
---------------- Step  4430000 ----- CPU =   2035.2723 (sec) ----------------
Time     = 22150000.000000 Temp     = 234.600813 Press    = 1332.629960 
PotEng   = -10.362745 KinEng   = 0.697935 Lx       = 24.624461 
Ly       = 24.624461 Lz       = 24.624461 Density  = 1.025794 
Volume   = 14931.389530 
---------------- Step  4440000 ----- CPU =   2041.1922 (sec) ----------------
Time     = 22200000.000000 Temp     = 232.093446 Press    = 1617.923550 
PotEng   = -10.445779 KinEng   = 0.690475 Lx       = 24.674413 
Ly       = 24.674413 Lz       = 24.674413 Density  = 1.019577 
Volume   = 15022.439905 
---------------- Step  4450000 ----- CPU =   2047.1242 (sec) ----------------
Time     = 22250000.000000 Temp     = 243.343587 Press    = 817.533575 
PotEng   = -10.363145 KinEng   = 0.723944 Lx       = 24.633507 
Ly       = 24.633507 Lz       = 24.633507 Density  = 1.024665 
Volume   = 14947.850817 
---------------- Step  4460000 ----- CPU =   2053.0308 (sec) ----------------
Time     = 22300000.000000 Temp     = 234.686958 Press    = 943.669291 
PotEng   = -10.386002 KinEng   = 0.698191 Lx       = 24.656197 
Ly       = 24.656197 Lz       = 24.656197 Density  = 1.021838 
Volume   = 14989.193735 
---------------- Step  4470000 ----- CPU =   2058.9953 (sec) ----------------
Time     = 22350000.000000 Temp     = 243.676489 Press    = 679.608970 
PotEng   = -10.384864 KinEng   = 0.724935 Lx       = 24.666698 
Ly       = 24.666698 Lz       = 24.666698 Density  = 1.020534 
Volume   = 15008.353531 
---------------- Step  4480000 ----- CPU =   2064.9777 (sec) ----------------
Time     = 22400000.000000 Temp     = 235.624042 Press    = 1297.725899 
PotEng   = -10.400027 KinEng   = 0.700979 Lx       = 24.637086 
Ly       = 24.637086 Lz       = 24.637086 Density  = 1.024218 
Volume   = 14954.365807 
---------------- Step  4490000 ----- CPU =   2070.8510 (sec) ----------------
Time     = 22450000.000000 Temp     = 234.630685 Press    = -421.792952 
PotEng   = -10.428162 KinEng   = 0.698024 Lx       = 24.735899 
Ly       = 24.735899 Lz       = 24.735899 Density  = 1.011993 
Volume   = 15135.023203 
---------------- Step  4500000 ----- CPU =   2076.7845 (sec) ----------------
Time     = 22500000.000000 Temp     = 229.414870 Press    = 75.278507 
PotEng   = -10.369767 KinEng   = 0.682507 Lx       = 24.631708 
Ly       = 24.631708 Lz       = 24.631708 Density  = 1.024889 
Volume   = 14944.576192 
---------------- Step  4510000 ----- CPU =   2082.6696 (sec) ----------------
Time     = 22550000.000000 Temp     = 250.074786 Press    = 1850.781667 
PotEng   = -10.456156 KinEng   = 0.743970 Lx       = 24.653692 
Ly       = 24.653692 Lz       = 24.653692 Density  = 1.022150 
Volume   = 14984.624972 
---------------- Step  4520000 ----- CPU =   2088.5912 (sec) ----------------
Time     = 22600000.000000 Temp     = 251.589247 Press    = 1106.798366 
PotEng   = -10.369617 KinEng   = 0.748475 Lx       = 24.637095 
Ly       = 24.637095 Lz       = 24.637095 Density  = 1.024217 
Volume   = 14954.383610 
---------------- Step  4530000 ----- CPU =   2094.5149 (sec) ----------------
Time     = 22650000.000000 Temp     = 238.962651 Press    = 1383.162632 
PotEng   = -10.419503 KinEng   = 0.710911 Lx       = 24.639725 
Ly       = 24.639725 Lz       = 24.639725 Density  = 1.023889 
Volume   = 14959.173174 
---------------- Step  4540000 ----- CPU =   2100.4778 (sec) ----------------
Time     = 22700000.000000 Temp     = 229.977894 Press    = 10.626559 
PotEng   = -10.428178 KinEng   = 0.684182 Lx       = 24.656769 
Ly       = 24.656769 Lz       = 24.656769 Density  = 1.021767 
Volume   = 14990.237196 
---------------- Step  4550000 ----- CPU =   2106.3219 (sec) ----------------
Time     = 22750000.000000 Temp     = 235.409278 Press    = 518.495585 
PotEng   = -10.372806 KinEng   = 0.700340 Lx       = 24.663095 
Ly       = 24.663095 Lz       = 24.663095 Density  = 1.020981 
Volume   = 15001.777964 
---------------- Step  4560000 ----- CPU =   2112.2165 (sec) ----------------
Time     = 22800000.000000 Temp     = 245.922886 Press    = 389.266570 
PotEng   = -10.388727 KinEng   = 0.731618 Lx       = 24.657982 
Ly       = 24.657982 Lz       = 24.657982 Density  = 1.021617 
Volume   = 14992.449412 
---------------- Step  4570000 ----- CPU =   2118.0884 (sec) ----------------
Time     = 22850000.000000 Temp     = 237.114137 Press    = 1395.695698 
PotEng   = -10.482108 KinEng   = 0.705412 Lx       = 24.632977 
Ly       = 24.632977 Lz       = 24.632977 Density  = 1.024731 
Volume   = 14946.886074 
---------------- Step  4580000 ----- CPU =   2124.0038 (sec) ----------------
Time     = 22900000.000000 Temp     = 241.554860 Press    = 684.447567 
PotEng   = -10.393258 KinEng   = 0.718623 Lx       = 24.605069 
Ly       = 24.605069 Lz       = 24.605069 Density  = 1.028222 
Volume   = 14896.140775 
---------------- Step  4590000 ----- CPU =   2129.9238 (sec) ----------------
Time     = 22950000.000000 Temp     = 246.304484 Press    = 866.031594 
PotEng   = -10.338938 KinEng   = 0.732753 Lx       = 24.615504 
Ly       = 24.615504 Lz       = 24.615504 Density  = 1.026915 
Volume   = 14915.100521 
---------------- Step  4600000 ----- CPU =   2135.8620 (sec) ----------------
Time     = 23000000.000000 Temp     = 237.697822 Press    = 1851.798292 
PotEng   = -10.404283 KinEng   = 0.707148 Lx       = 24.590229 
Ly       = 24.590229 Lz       = 24.590229 Density  = 1.030084 
Volume   = 14869.203142 
---------------- Step  4610000 ----- CPU =   2141.8049 (sec) ----------------
Time     = 23050000.000000 Temp     = 249.047880 Press    = 1424.363924 
PotEng   = -10.421330 KinEng   = 0.740914 Lx       = 24.624660 
Ly       = 24.624660 Lz       = 24.624660 Density  = 1.025769 
Volume   = 14931.751353 
---------------- Step  4620000 ----- CPU =   2147.7336 (sec) ----------------
Time     = 23100000.000000 Temp     = 230.901873 Press    = 1934.337176 
PotEng   = -10.409621 KinEng   = 0.686930 Lx       = 24.559829 
Ly       = 24.559829 Lz       = 24.559829 Density  = 1.033914 
Volume   = 14814.125003 
---------------- Step  4630000 ----- CPU =   2153.6741 (sec) ----------------
Time     = 23150000.000000 Temp     = 234.107808 Press    = 399.817837 
PotEng   = -10.316151 KinEng   = 0.696468 Lx       = 24.662528 
Ly       = 24.662528 Lz       = 24.662528 Density  = 1.021052 
Volume   = 15000.742449 
---------------- Step  4640000 ----- CPU =   2159.6286 (sec) ----------------
Time     = 23200000.000000 Temp     = 241.904270 Press    = 173.672540 
PotEng   = -10.444693 KinEng   = 0.719662 Lx       = 24.685042 
Ly       = 24.685042 Lz       = 24.685042 Density  = 1.018261 
Volume   = 15041.861862 
---------------- Step  4650000 ----- CPU =   2165.5748 (sec) ----------------
Time     = 23250000.000000 Temp     = 235.235664 Press    = 652.927220 
PotEng   = -10.425902 KinEng   = 0.699823 Lx       = 24.666351 
Ly       = 24.666351 Lz       = 24.666351 Density  = 1.020577 
Volume   = 15007.719472 
---------------- Step  4660000 ----- CPU =   2171.4915 (sec) ----------------
Time     = 23300000.000000 Temp     = 239.243520 Press    = 2083.437778 
PotEng   = -10.406264 KinEng   = 0.711747 Lx       = 24.615274 
Ly       = 24.615274 Lz       = 24.615274 Density  = 1.026943 
Volume   = 14914.683302 
---------------- Step  4670000 ----- CPU =   2177.4178 (sec) ----------------
Time     = 23350000.000000 Temp     = 242.394093 Press    = 1136.121174 
PotEng   = -10.418990 KinEng   = 0.721120 Lx       = 24.604268 
Ly       = 24.604268 Lz       = 24.604268 Density  = 1.028322 
Volume   = 14894.684968 
---------------- Step  4680000 ----- CPU =   2183.3514 (sec) ----------------
Time     = 23400000.000000 Temp     = 243.957961 Press    = 1386.761060 
PotEng   = -10.405879 KinEng   = 0.725772 Lx       = 24.641563 
Ly       = 24.641563 Lz       = 24.641563 Density  = 1.023660 
Volume   = 14962.519653 
---------------- Step  4690000 ----- CPU =   2189.2689 (sec) ----------------
Time     = 23450000.000000 Temp     = 234.941851 Press    = 898.455188 
PotEng   = -10.386204 KinEng   = 0.698949 Lx       = 24.579850 
Ly       = 24.579850 Lz       = 24.579850 Density  = 1.031390 
Volume   = 14850.383653 
---------------- Step  4700000 ----- CPU =   2195.2247 (sec) ----------------
Time     = 23500000.000000 Temp     = 233.168201 Press    = 1497.771325 
PotEng   = -10.399149 KinEng   = 0.693673 Lx       = 24.672301 
Ly       = 24.672301 Lz       = 24.672301 Density  = 1.019839 
Volume   = 15018.583807 
---------------- Step  4710000 ----- CPU =   2201.2019 (sec) ----------------
Time     = 23550000.000000 Temp     = 233.112255 Press    = 1227.796992 
PotEng   = -10.417518 KinEng   = 0.693506 Lx       = 24.651576 
Ly       = 24.651576 Lz       = 24.651576 Density  = 1.022413 
Volume   = 14980.767057 
---------------- Step  4720000 ----- CPU =   2207.1942 (sec) ----------------
Time     = 23600000.000000 Temp     = 242.056929 Press    = 813.904091 
PotEng   = -10.407566 KinEng   = 0.720116 Lx       = 24.603681 
Ly       = 24.603681 Lz       = 24.603681 Density  = 1.028396 
Volume   = 14893.619419 
---------------- Step  4730000 ----- CPU =   2213.1181 (sec) ----------------
Time     = 23650000.000000 Temp     = 218.879213 Press    = 680.906209 
PotEng   = -10.393214 KinEng   = 0.651163 Lx       = 24.642820 
Ly       = 24.642820 Lz       = 24.642820 Density  = 1.023503 
Volume   = 14964.811114 
---------------- Step  4740000 ----- CPU =   2219.1350 (sec) ----------------
Time     = 23700000.000000 Temp     = 244.531768 Press    = 714.026232 
PotEng   = -10.437612 KinEng   = 0.727479 Lx       = 24.603310 
Ly       = 24.603310 Lz       = 24.603310 Density  = 1.028442 
Volume   = 14892.946099 
---------------- Step  4750000 ----- CPU =   2224.9904 (sec) ----------------
Time     = 23750000.000000 Temp     = 232.357746 Press    = 700.112682 
PotEng   = -10.417712 KinEng   = 0.691262 Lx       = 24.655918 
Ly       = 24.655918 Lz       = 24.655918 Density  = 1.021873 
Volume   = 14988.685215 
---------------- Step  4760000 ----- CPU =   2230.9256 (sec) ----------------
Time     = 23800000.000000 Temp     = 234.145269 Press    = 1131.011704 
PotEng   = -10.446117 KinEng   = 0.696579 Lx       = 24.626430 
Ly       = 24.626430 Lz       = 24.626430 Density  = 1.025548 
Volume   = 14934.971130 
---------------- Step  4770000 ----- CPU =   2236.8812 (sec) ----------------
Time     = 23850000.000000 Temp     = 241.775823 Press    = 1789.982528 
PotEng   = -10.418408 KinEng   = 0.719280 Lx       = 24.631780 
Ly       = 24.631780 Lz       = 24.631780 Density  = 1.024880 
Volume   = 14944.705748 
---------------- Step  4780000 ----- CPU =   2242.7634 (sec) ----------------
Time     = 23900000.000000 Temp     = 244.857528 Press    = 1499.530336 
PotEng   = -10.415368 KinEng   = 0.728448 Lx       = 24.587509 
Ly       = 24.587509 Lz       = 24.587509 Density  = 1.030426 
Volume   = 14864.270913 
---------------- Step  4790000 ----- CPU =   2248.6615 (sec) ----------------
Time     = 23950000.000000 Temp     = 225.134874 Press    = 2129.935371 
PotEng   = -10.416594 KinEng   = 0.669774 Lx       = 24.549698 
Ly       = 24.549698 Lz       = 24.549698 Density  = 1.035195 
Volume   = 14795.799893 
---------------- Step  4800000 ----- CPU =   2254.5807 (sec) ----------------
Time     = 24000000.000000 Temp     = 244.207413 Press    = 1473.616471 
PotEng   = -10.347421 KinEng   = 0.726514 Lx       = 24.619960 
Ly       = 24.619960 Lz       = 24.619960 Density  = 1.026357 
Volume   = 14923.202718 
---------------- Step  4810000 ----- CPU =   2260.4720 (sec) ----------------
Time     = 24050000.000000 Temp     = 240.621147 Press    = 1198.807201 
PotEng   = -10.428865 KinEng   = 0.715845 Lx       = 24.652001 
Ly       = 24.652001 Lz       = 24.652001 Density  = 1.022360 
Volume   = 14981.542103 
---------------- Step  4820000 ----- CPU =   2266.4261 (sec) ----------------
Time     = 24100000.000000 Temp     = 234.895797 Press    = 1786.417189 
PotEng   = -10.412122 KinEng   = 0.698812 Lx       = 24.607098 
Ly       = 24.607098 Lz       = 24.607098 Density  = 1.027967 
Volume   = 14899.825992 
---------------- Step  4830000 ----- CPU =   2272.3886 (sec) ----------------
Time     = 24150000.000000 Temp     = 245.015742 Press    = 1180.409500 
PotEng   = -10.401576 KinEng   = 0.728919 Lx       = 24.532318 
Ly       = 24.532318 Lz       = 24.532318 Density  = 1.037396 
Volume   = 14764.398630 
---------------- Step  4840000 ----- CPU =   2278.3228 (sec) ----------------
Time     = 24200000.000000 Temp     = 230.858526 Press    = 1360.585088 
PotEng   = -10.418693 KinEng   = 0.686801 Lx       = 24.635352 
Ly       = 24.635352 Lz       = 24.635352 Density  = 1.024435 
Volume   = 14951.208871 
---------------- Step  4850000 ----- CPU =   2284.2517 (sec) ----------------
Time     = 24250000.000000 Temp     = 244.219068 Press    = 1895.339737 
PotEng   = -10.401251 KinEng   = 0.726549 Lx       = 24.593057 
Ly       = 24.593057 Lz       = 24.593057 Density  = 1.029729 
Volume   = 14874.334633 
---------------- Step  4860000 ----- CPU =   2290.1823 (sec) ----------------
Time     = 24300000.000000 Temp     = 238.778800 Press    = 1460.047635 
PotEng   = -10.455291 KinEng   = 0.710364 Lx       = 24.606357 
Ly       = 24.606357 Lz       = 24.606357 Density  = 1.028060 
Volume   = 14898.479584 
---------------- Step  4870000 ----- CPU =   2296.0924 (sec) ----------------
Time     = 24350000.000000 Temp     = 235.000470 Press    = 572.939098 
PotEng   = -10.367380 KinEng   = 0.699124 Lx       = 24.676879 
Ly       = 24.676879 Lz       = 24.676879 Density  = 1.019271 
Volume   = 15026.944734 
---------------- Step  4880000 ----- CPU =   2302.0164 (sec) ----------------
Time     = 24400000.000000 Temp     = 243.038802 Press    = 147.122304 
PotEng   = -10.419962 KinEng   = 0.723038 Lx       = 24.640619 
Ly       = 24.640619 Lz       = 24.640619 Density  = 1.023778 
Volume   = 14960.801672 
---------------- Step  4890000 ----- CPU =   2307.9075 (sec) ----------------
Time     = 24450000.000000 Temp     = 232.180532 Press    = -60.749637 
PotEng   = -10.389779 KinEng   = 0.690734 Lx       = 24.696003 
Ly       = 24.696003 Lz       = 24.696003 Density  = 1.016905 
Volume   = 15061.908701 
---------------- Step  4900000 ----- CPU =   2313.7964 (sec) ----------------
Time     = 24500000.000000 Temp     = 237.557545 Press    = 583.123297 
PotEng   = -10.395071 KinEng   = 0.706731 Lx       = 24.650072 
Ly       = 24.650072 Lz       = 24.650072 Density  = 1.022600 
Volume   = 14978.026339 
---------------- Step  4910000 ----- CPU =   2319.7577 (sec) ----------------
Time     = 24550000.000000 Temp     = 235.837991 Press    = 1223.961784 
PotEng   = -10.431689 KinEng   = 0.701615 Lx       = 24.591216 
Ly       = 24.591216 Lz       = 24.591216 Density  = 1.029960 
Volume   = 14870.993908 
---------------- Step  4920000 ----- CPU =   2325.6491 (sec) ----------------
Time     = 24600000.000000 Temp     = 237.087818 Press    = 1488.613566 
PotEng   = -10.355069 KinEng   = 0.705333 Lx       = 24.601692 
Ly       = 24.601692 Lz       = 24.601692 Density  = 1.028645 
Volume   = 14890.007722 
---------------- Step  4930000 ----- CPU =   2331.5862 (sec) ----------------
Time     = 24650000.000000 Temp     = 231.146926 Press    = 1071.838990 
PotEng   = -10.432762 KinEng   = 0.687659 Lx       = 24.613835 
Ly       = 24.613835 Lz       = 24.613835 Density  = 1.027124 
Volume   = 14912.066914 
---------------- Step  4940000 ----- CPU =   2337.5417 (sec) ----------------
Time     = 24700000.000000 Temp     = 244.305237 Press    = 1145.045431 
PotEng   = -10.342094 KinEng   = 0.726805 Lx       = 24.652230 
Ly       = 24.652230 Lz       = 24.652230 Density  = 1.022332 
Volume   = 14981.960475 
---------------- Step  4950000 ----- CPU =   2343.5264 (sec) ----------------
Time     = 24750000.000000 Temp     = 252.664179 Press    = 1746.379153 
PotEng   = -10.439407 KinEng   = 0.751673 Lx       = 24.565360 
Ly       = 24.565360 Lz       = 24.565360 Density  = 1.033216 
Volume   = 14824.137059 
---------------- Step  4960000 ----- CPU =   2349.4279 (sec) ----------------
Time     = 24800000.000000 Temp     = 236.421091 Press    = 1030.719792 
PotEng   = -10.407060 KinEng   = 0.703350 Lx       = 24.668091 
Ly       = 24.668091 Lz       = 24.668091 Density  = 1.020361 
Volume   = 15010.896010 
---------------- Step  4970000 ----- CPU =   2355.3757 (sec) ----------------
Time     = 24850000.000000 Temp     = 230.633163 Press    = 350.819785 
PotEng   = -10.399531 KinEng   = 0.686131 Lx       = 24.651510 
Ly       = 24.651510 Lz       = 24.651510 Density  = 1.022421 
Volume   = 14980.647378 
---------------- Step  4980000 ----- CPU =   2361.2318 (sec) ----------------
Time     = 24900000.000000 Temp     = 259.141476 Press    = 1091.200552 
PotEng   = -10.471420 KinEng   = 0.770943 Lx       = 24.676691 
Ly       = 24.676691 Lz       = 24.676691 Density  = 1.019295 
Volume   = 15026.601253 
---------------- Step  4990000 ----- CPU =   2366.9816 (sec) ----------------
Time     = 24950000.000000 Temp     = 238.520330 Press    = 835.167697 
PotEng   = -10.437248 KinEng   = 0.709595 Lx       = 24.723872 
Ly       = 24.723872 Lz       = 24.723872 Density  = 1.013470 
Volume   = 15112.957784 
---------------- Step  5000000 ----- CPU =   2372.6918 (sec) ----------------
Time     = 25000000.000000 Temp     = 230.976501 Press    = 526.115733 
PotEng   = -10.442233 KinEng   = 0.687152 Lx       = 24.717758 
Ly       = 24.717758 Lz       = 24.717758 Density  = 1.014223 
Volume   = 15101.747972 
Loop time of 2372.69 on 6 procs for 4000000 steps with 512 atoms

Performance: 728.287 ns/day, 0.033 hours/ns, 1685.849 timesteps/s
97.2% CPU use with 6 MPI tasks x no OpenMP threads

MPI task timing breakdown:
Section |  min time  |  avg time  |  max time  |%varavg| %total
---------------------------------------------------------------
Pair    | 2002.7     | 2016.6     | 2034.7     |  30.2 | 84.99
Neigh   | 50.932     | 51.026     | 51.09      |   0.7 |  2.15
Comm    | 237.41     | 255.03     | 268.2      |  81.8 | 10.75
Output  | 0.0095961  | 0.015289   | 0.0428     |  10.0 |  0.00
Modify  | 40.344     | 41.225     | 41.874     |   8.2 |  1.74
Other   |            | 8.744      |            |       |  0.37

Nlocal:    85.3333 ave 92 max 78 min
Histogram: 1 0 1 0 0 2 0 1 0 1
Nghost:    577.667 ave 586 max 573 min
Histogram: 2 1 1 0 0 0 0 1 0 1
Neighs:    0 ave 0 max 0 min
Histogram: 6 0 0 0 0 0 0 0 0 0
FullNghs:  2888.67 ave 3132 max 2639 min
Histogram: 1 0 1 0 1 1 0 0 1 1

Total # of neighbors = 17332
Ave neighs/atom = 33.8516
Neighbor list builds = 226449
Dangerous builds = 0

write_data data.final
Total wall time: 0:49:26
