LAMMPS data file via write_data, version 4 Jan 2019, timestep = 1000000

512 atoms
1 atom types

3.2639432450935146e-02 2.4802360567553244e+01 xlo xhi
3.2639432450935146e-02 2.4802360567553244e+01 ylo yhi
3.2639432450935146e-02 2.4802360567553244e+01 zlo zhi

Masses

1 18.0153

Atoms # atomic

162 1 4.3398882759486213e-01 9.2496418703171184e+00 7.4980890103915501e+00 -47 13 1
39 1 1.5713759687824769e-01 1.1012465766535234e+01 3.5957069068005940e+00 17 35 52
67 1 8.7708367756514658e+00 4.2345260966432337e+00 7.6893442677349555e-01 -21 -81 -35
483 1 2.8559841047104255e+00 1.4487693880096137e+00 1.9056558749218224e+00 35 57 22
121 1 3.5311507180000321e+00 8.5388949719070499e+00 2.1688863050555018e+00 -10 9 21
116 1 4.0985853683568410e+00 1.2396495555844629e+00 4.6268444695302975e+00 -44 1 -2
357 1 1.0616236014461261e+01 7.6978172322594665e+00 7.9146198022153307e+00 3 -17 -6
259 1 1.0354887931878016e+01 5.6360056011028326e-01 3.8917383648949340e+00 -4 53 29
362 1 6.5087270891566664e+00 5.4513750578377360e+00 8.9187927573684114e+00 -50 -23 -65
271 1 7.1952367173294611e+00 4.6918596162300092e+00 1.1693026293719395e+01 41 36 -48
25 1 7.4439811362644424e+00 5.5634548266751640e+00 6.0558742291368652e+00 56 -80 -50
210 1 1.2299514184399793e+01 1.0205888377758530e+01 8.3039425713160977e+00 -3 2 52
316 1 2.6079390718957050e+00 5.9428689804093784e+00 1.1622053708431157e+01 28 114 78
207 1 7.8077271256142433e+00 8.0597347797262948e+00 8.5157323584100038e+00 40 -32 2
120 1 8.2197445537422098e+00 7.9371310878993171e+00 3.3634468139715379e+00 0 -63 70
272 1 8.4125046433900188e+00 1.9462468025241264e+00 5.6878837439357799e+00 -27 9 109
27 1 8.8728392252536423e+00 1.0834846364644406e+01 3.4509641015621377e+00 10 -41 49
96 1 6.0291604283478915e+00 8.2238714793841137e+00 6.1427021006253204e+00 237 41 74
253 1 3.0371573018549660e+00 1.0645167401022338e+01 4.0851654834842499e+00 -1 11 -12
510 1 1.0406581624573713e+01 2.6265438977224771e+00 8.8651303334556744e+00 -59 141 34
278 1 1.6562594617613318e+00 1.2060700281358146e+01 7.2767903976409194e+00 -82 -102 48
37 1 3.7035892228041689e+00 8.4999385647700194e+00 1.0565775037415245e+01 43 29 -37
382 1 3.9763946644760848e+00 1.0293925314657031e+01 6.7942573006957963e+00 42 -13 66
77 1 1.1809848505414948e+01 1.1385230351912803e+01 3.9215592580308587e+00 44 -24 15
341 1 2.5096031855024592e-01 8.4698576392993452e+00 4.8358638284220028e+00 41 -37 75
124 1 8.1316354280200205e+00 1.0303943004262498e+01 6.5679401657256919e+00 -49 156 -32
238 1 1.0762700485324224e+01 2.1696968474668687e+00 1.7096870342187453e+00 51 18 -27
154 1 8.9991472595706445e-02 4.4450995056960858e+00 1.1330670594047078e+01 104 -28 1
328 1 2.3420101867698628e+00 5.9735651318991154e+00 2.5903237567703967e+00 72 82 -16
457 1 6.1713728003594948e-01 1.5138050130988960e+00 1.0422322359577999e+01 -13 -33 72
167 1 1.4574865940243575e+00 6.0092970441449101e+00 5.2720817028877498e+00 18 -18 2
189 1 8.6752951427074343e-01 2.6421732719508708e+00 5.0490634282163755e+00 121 -50 -36
90 1 9.9252308061211778e+00 6.0613851050689300e+00 4.4824659782003762e+00 -58 -43 -72
388 1 3.1078636514290969e-01 2.7557733979270029e+00 8.1261588255254491e+00 54 -16 26
17 1 3.0957905092110187e+00 2.6920730652127194e+00 6.7767308690032326e+00 45 16 17
512 1 1.5352962246179243e+00 7.2320817654233753e+00 8.9429820763994012e+00 -16 -26 90
178 1 5.8810660210389889e+00 6.9929667807000220e+00 2.2873550713031650e+00 77 26 -62
293 1 3.6535009146294866e+00 4.0743890099557118e+00 5.3475387441604294e-01 3 124 55
317 1 8.0926040046545769e+00 9.7198620870052537e+00 1.0610418345193638e+01 126 -26 -22
136 1 6.1566267382238973e+00 5.6609212477179209e+00 8.0153488213809299e-02 41 -66 112
435 1 1.0400419305679621e+01 6.5063867927954746e+00 1.7192020927135314e+00 -44 -21 -17
290 1 1.0564660026295353e+01 8.1593320778177567e+00 1.0772211548093770e+01 -6 -93 -78
250 1 7.8539277039375390e+00 2.1365657757253880e+00 2.9023777309399184e+00 -4 14 169
99 1 1.0957746525979378e+01 3.0857855298020347e+00 6.3951994507161620e+00 6 -14 44
380 1 4.1367890687792030e+00 4.4574445297694609e+00 9.7494087530331051e+00 0 82 63
231 1 3.2318992464313783e+00 5.6379851583074432e+00 7.5381753238684732e+00 -52 6 33
476 1 4.2268716330448868e+00 6.0255347684944605e+00 4.6024980773713029e+00 -32 -15 -48
24 1 1.1907315485833514e+01 5.7242017973337811e+00 6.1320318002144685e+00 21 -58 57
323 1 5.9497294196264754e+00 3.6196642264469965e+00 4.8986711578760547e+00 19 -102 22
194 1 5.0482064890678080e+00 1.0922408819509638e+01 9.4824473768059079e+00 41 105 3
354 1 4.2728222691615061e+00 1.6853321379400137e+00 8.8645670865377557e+00 8 51 10
222 1 9.3553282369968438e-01 9.8770742625721422e+00 1.0875500310240005e+01 14 52 47
273 1 8.2548993418997849e+00 2.2750049040522384e+00 1.0261225222312273e+01 76 172 112
117 1 5.9448764447559395e+00 1.2171773417600605e+01 6.9255322013241321e+00 52 49 95
119 1 6.8792397981817563e+00 1.2387020887604995e+01 3.1794035467764834e+00 49 72 96
353 1 1.0435470969864079e+01 5.5002929003011740e+00 1.0173424365820466e+01 -161 53 102
203 1 3.9186797419415531e+00 1.1862840820270314e+01 1.2129165243932508e+01 98 -118 76
455 1 6.8316678733371861e+00 1.1192845782138559e+00 8.1401230254412908e+00 56 99 27
355 1 1.1757700824052076e+01 1.0542958232882649e+01 1.1535854152570558e+01 -32 5 62
479 1 2.6675238571047943e+00 8.5496147316211459e+00 2.4050782990380153e+01 -31 -15 -55
164 1 3.7865850367903633e+00 2.7019133429425337e+00 2.1436081447565318e+01 50 28 133
503 1 1.0942139065691666e+01 1.0187159347844787e+01 2.3162133322171861e+01 -7 1 25
190 1 9.5751616019566193e+00 9.6459699346978294e+00 1.5198812492491152e+01 97 86 21
260 1 1.2798351037722453e+00 1.1053764172823325e+01 1.9552211173355687e+01 -31 -8 49
491 1 7.3435511455914737e+00 9.2802581054757827e+00 1.3340226717742622e+01 -34 -35 -20
247 1 2.1214516454863563e+00 6.6807774572641412e+00 2.1897818446547515e+01 19 -18 10
198 1 9.8750818785170136e+00 6.3810307075630157e-01 1.4526091794701598e+01 -36 48 12
262 1 4.2436899733099454e+00 1.0729776733085925e+01 1.5348748038040142e+01 9 62 -47
15 1 5.0409953861068093e+00 7.0283870257251451e+00 2.0400933736551334e+01 13 -19 -141
38 1 2.3225564651577719e+00 8.5837276359926697e+00 1.4980695867681026e+01 -26 56 -15
226 1 4.9170787425323699e+00 1.5837872165532507e+00 2.3669585922111274e+01 -4 6 -11
217 1 1.0589008842971912e+01 8.7593811621745346e+00 1.8134534554104459e+01 96 -33 81
333 1 9.0958720071965597e+00 6.3629872308553646e+00 1.7452777647680424e+01 15 36 39
58 1 8.0841212010771653e+00 7.2466557554699529e+00 1.4991111104106848e+01 -5 -5 -2
85 1 9.6829714881406237e-01 1.5731569091478785e+00 1.7762954316879469e+01 24 46 -92
443 1 4.6562466865610297e+00 5.4008656179848344e+00 1.3332029299262095e+01 -108 15 -9
350 1 1.0097350306808821e+01 7.7334042749839673e+00 2.3921562723467041e+01 15 0 52
294 1 1.3536922958502791e+00 4.1541326701427073e+00 1.6210292016977423e+01 47 41 -79
243 1 4.2057633077417220e+00 4.2321742489364764e+00 1.5828144264552202e+01 19 -38 -19
432 1 5.3154809595478776e+00 8.8413900245520587e+00 2.2608763763672915e+01 34 -53 2
11 1 7.8691566796339840e+00 2.0413141181965626e+00 1.3134929688416006e+01 14 66 -40
10 1 1.0689545297911266e+01 1.2148684760379330e+01 1.6883735126681671e+01 -88 53 -16
370 1 2.2267921598359938e-01 1.7387927037207407e+00 2.2648222618455993e+01 -16 106 33
506 1 1.2023585730732904e+01 7.5058539539888907e+00 1.3122193440917057e+01 -12 -19 -5
144 1 7.1666641811093923e+00 1.0282371258884346e+01 1.9781014722060231e+01 -18 37 55
53 1 3.7957384605851634e+00 1.1278069214493341e+01 1.8009663249738306e+01 55 104 149
172 1 4.8955208526827398e+00 7.9284672587890297e+00 1.3889738027444121e+01 -22 -114 37
36 1 2.2383420727447483e+00 5.3580171486145900e-01 1.2852632268409765e+01 109 78 111
286 1 1.4594569139049252e+00 1.1331595869400989e+01 1.5579133833286546e+01 43 -18 16
413 1 7.6537579712050308e+00 1.1272333961010258e+01 1.6910558595283980e+01 -21 5 -25
489 1 5.6042120391684227e+00 2.1139074881110020e+00 1.4795032574311804e+01 69 185 -38
74 1 1.0421630035451711e+01 7.8687634977270249e-01 1.7501671272741135e+01 6 48 -4
486 1 8.4518089768500229e+00 7.9177438757717029e+00 1.9801412491398800e+01 55 17 -20
135 1 5.5943011142851811e+00 6.8518368578363198e+00 1.6429016157331908e+01 -8 56 -70
95 1 9.5631132312113607e+00 5.8728100667065615e+00 1.3234770558820244e+01 55 120 -7
470 1 2.2680462528255774e+00 3.6842676425617058e+00 1.9270349620837067e+01 27 -33 -125
318 1 4.7558702473512451e+00 4.7690849681380421e+00 1.8777782534580020e+01 41 -2 162
419 1 1.7911976228960785e-01 8.6568802650895691e+00 2.0713439429172738e+01 44 18 14
261 1 1.0457413658423643e+01 4.1324700953835780e-01 2.0289351566702710e+01 1 39 -114
69 1 1.1619148136063034e+01 1.1239409202428337e+01 1.9331987053286984e+01 -17 1 5
137 1 1.0121433180935934e+01 3.6367539526338142e+00 1.5064905658245836e+01 -1 -25 55
436 1 5.5137171153197961e+00 9.8911850002412505e-01 1.9485800750625121e+01 50 73 20
152 1 4.8897079282009575e+00 8.6885450031980653e+00 1.8425516457764388e+01 -68 -145 -4
308 1 1.1502637246758848e+01 3.0275370717218415e+00 2.1193389225703996e+01 50 119 59
206 1 7.8039801942437705e+00 1.3852047064154422e+00 1.6472160054011617e+01 19 -92 32
73 1 1.0203284027322887e+01 6.2669711231972558e-01 2.3523309329287898e+01 -55 5 15
191 1 1.1022938729221011e+01 3.3090848687056140e+00 2.3754705787081196e+01 45 -29 -10
153 1 6.3672632946214351e+00 1.2062227328800446e+01 1.3832661298897387e+01 5 -28 76
244 1 1.0054781072262742e+01 3.6698792321396807e+00 1.7912693905320761e+01 -46 71 5
235 1 1.1955213988420521e+01 1.1310483272066190e+01 1.4530959857108440e+01 26 -57 144
84 1 5.9937712063621218e+00 1.1573104875404937e+01 2.2211605862082742e+01 39 50 33
297 1 7.4408586676477064e+00 3.1961550931977092e+00 1.8746487207580746e+01 15 32 -15
319 1 1.2221164438842630e+01 1.0303348763768421e+00 1.2657168191665898e+01 -33 -1 59
450 1 1.9929655888990008e+00 4.0817155311623043e+00 2.3114931636232452e+01 115 -89 21
321 1 8.2151231277696934e-01 7.9967349735839584e+00 1.2886329274875660e+01 45 28 -83
91 1 7.5042347042058593e+00 7.2005869823835766e+00 2.3148265366379874e+01 -20 6 24
394 1 5.7837431080314738e+00 3.9360981553077545e+00 2.2501383311363405e+01 -116 1 -20
150 1 1.1077175234691932e+00 3.1969247513900059e+00 1.3618923092250133e+01 80 -36 83
441 1 7.5497532946601540e+00 5.5393999530897062e+00 2.0740751208020260e+01 -9 -70 -15
478 1 3.2448745099138249e-01 1.0254416347378594e+01 2.3160620878067402e+01 34 -14 24
414 1 7.6120055190360469e+00 1.1740120277890349e+00 2.1538843959606453e+01 106 17 51
129 1 2.3040248923467792e+00 4.4020502909120296e-02 2.3553367630900699e+01 -40 -38 -80
142 1 1.1376598870910049e+01 1.7787437877026154e+01 7.7274674042464611e+00 17 18 53
219 1 2.6912251110519372e+00 2.2350452519840857e+01 2.7808099937959749e+00 -22 -15 -97
403 1 2.3782556793703415e+00 1.9374114913551260e+01 6.7245710769539953e+00 -65 49 12
263 1 2.4662444171305706e+00 1.4551645962516544e+01 4.0007264767984738e+00 25 136 6
385 1 1.0595472459928391e+01 1.8408960644542027e+01 1.0451860237139805e+01 34 24 44
105 1 7.5457449421330152e+00 2.4119058310259497e+01 1.0019589326936270e+01 0 84 19
453 1 1.6175591556146598e+00 1.7224331564417259e+01 5.6928455662674515e-01 55 -3 -1
204 1 6.3141656334325198e+00 1.9427197768917107e+01 7.9412573748344304e+00 20 -20 -179
487 1 5.5248101330693693e+00 1.4362113425756828e+01 8.7229255467375051e+00 35 43 -15
213 1 4.3942789045643780e+00 1.9207272604548745e+01 9.7573163162445571e+00 -50 -3 20
429 1 1.2337333230262906e+00 1.2731691597591038e+01 9.9852124289908488e+00 -29 -34 40
8 1 5.8024148425387851e+00 1.9660012808446286e+01 2.3286088399767166e+00 -15 24 -28
59 1 4.9207504939703410e+00 2.2160275461693548e+01 7.6989059770448378e+00 47 -93 55
75 1 1.0359831941611549e+01 1.7992227071454604e+01 2.6592186139326328e+00 12 38 6
275 1 7.2148599563291951e+00 1.4257801620196975e+01 1.1059145090519562e+00 19 1 21
196 1 6.8125971867815274e+00 1.3812728420878114e+01 1.1451313175334729e+01 9 18 9
460 1 1.0295297358932277e+01 1.4678305176239801e+01 1.0620844895025087e+01 -110 127 29
255 1 1.3327053800469407e-01 1.7578997439406230e+01 1.2020824926735569e+01 -131 3 80
392 1 1.0783320921508487e+01 1.5198593036780224e+01 3.4406403380332931e+00 19 20 -62
83 1 3.8645333030056075e+00 2.3088292951983156e+01 5.3868678658801112e+00 47 7 -4
186 1 8.6952112967892603e+00 1.9317265403336823e+01 4.5637015503914373e+00 -20 171 25
82 1 1.5456213725565409e+00 2.1257024715801940e+01 1.1943732718367311e+01 0 -9 8
130 1 1.1501653932105942e+01 2.0946916471893047e+01 2.6168819807489774e+00 -8 -36 14
88 1 1.3206102401931679e+00 1.8433398696105055e+01 3.5031160455405774e+00 -12 15 48
31 1 3.3900756308655469e+00 1.9954986551299090e+01 4.1732086472174847e+00 -55 -16 128
111 1 9.3441627602727113e+00 2.1021395940149432e+01 9.7571159444378459e+00 4 45 89
123 1 6.1743237510581892e+00 1.4144390260517151e+01 4.9209479789246737e+00 -74 -1 5
437 1 7.8154226682157291e-01 2.4630752752466272e+01 2.3981710718366802e+00 -4 12 -117
220 1 1.0277893493962504e+01 1.5217100731747060e+01 6.1930003085354624e-01 46 0 -3
179 1 7.9070565799655981e+00 2.2087493341393582e+01 7.6082625217964486e+00 -61 -76 -45
406 1 6.3701955479246246e+00 1.6894641647643148e+01 1.6063645941881870e+00 35 138 -1
265 1 8.8588248866904440e+00 1.2467392952349666e+01 1.0043444471332238e+01 -69 -57 69
444 1 8.8853208717735370e+00 1.4239584944760033e+01 5.4891989726450960e+00 -2 -28 16
9 1 1.6534787079187116e-01 2.1121123136514431e+01 3.5294030934211267e+00 -38 45 18
332 1 4.5726880620405588e+00 2.3309802808693256e+01 1.0402794251372669e+01 17 -22 -104
306 1 7.0306476227919141e+00 2.4093136597553602e+01 5.8713364702908670e+00 -4 68 -62
391 1 1.0638622692669895e+01 2.3511201699991339e+01 1.0332416893089073e+01 -78 -26 -6
20 1 6.0528236823605308e+00 1.9453723225691721e+01 5.2325276602214732e+00 122 22 31
257 1 1.0713985700211936e+01 2.0988911507311254e+01 5.2498234843581102e+00 -17 12 69
138 1 7.1950643666107732e+00 1.6624118059907385e+01 1.0949888699153608e+01 189 33 16
208 1 2.0682360757048328e+00 1.7103477258473422e+01 9.9732784508170891e+00 20 84 -12
464 1 4.3404989541683481e+00 2.1156190624806328e+01 1.1878858693923755e+01 17 18 -29
398 1 2.2828212355933881e+00 1.4482408318387371e+01 8.8799511111239326e-01 -57 -26 14
373 1 1.0005197739347699e+01 2.3766530178438227e+01 6.2581893863839086e+00 46 40 -40
307 1 1.2260053388491778e+01 2.3704368377739062e+01 7.7620410814304828e+00 -59 105 -2
474 1 8.6315313887012817e+00 1.8342298876958846e+01 6.6650682007480477e-01 -10 -52 -31
348 1 8.9395789128662368e+00 1.7222957957999782e+01 6.1807283883563153e+00 -8 -25 11
252 1 3.9611875675849335e+00 2.3744903142870488e+01 8.6072924735454004e-01 -48 -83 10
488 1 9.0728689946457166e+00 2.2759336616337606e+01 2.9177301600213270e+00 -25 -26 31
326 1 6.7408126487014304e+00 1.6733211298077570e+01 8.2193200269312996e+00 41 113 -4
187 1 3.5316772307763307e+00 1.4088431415312661e+01 6.4551918310723906e+00 4 24 -15
298 1 1.1512942354709410e+00 2.1471546575527068e+01 5.1289711927088044e-01 12 49 8
282 1 1.9779233063623913e+00 1.6472703573498226e+01 7.2364582208245753e+00 39 22 83
368 1 1.5590217246544615e+00 2.3292132284458155e+01 6.7206528557577210e+00 48 -35 43
86 1 5.6871867130719957e+00 1.6816394923049330e+01 4.2527567712709002e+00 -34 -61 85
481 1 3.2128133913632322e+00 1.4685418305475981e+01 1.0200079668823388e+01 45 -20 -8
49 1 1.0543357810235572e+00 2.1114857168894989e+01 8.5054189700084279e+00 -6 24 -3
395 1 6.2151381675848540e+00 2.2191820316808371e+01 3.9579137955218266e+00 -31 45 -44
125 1 9.3666163805352944e+00 1.2519450718977485e+01 7.3779899399007638e+00 -45 -28 -9
199 1 6.7373261900426114e+00 2.4212993732323291e+01 1.6550906155700102e+00 12 67 -25
224 1 1.2126041650244144e+01 1.2781009617988378e+01 7.6832373145392445e+00 62 -88 8
407 1 8.0940974508967560e+00 2.0584514326347058e+01 1.2047645952200748e+01 16 8 54
143 1 2.6373673011035796e+00 2.4492472135800210e+01 9.2076731328569679e+00 36 17 -6
48 1 4.2944182382059637e+00 1.2931261806188317e+01 2.5767458428045629e+00 10 -4 32
215 1 5.8815115870862575e+00 1.8635071513437001e+01 1.2291367357518132e+01 8 -140 -44
372 1 9.6499094195518822e+00 2.2500659101397602e+01 2.3052348033395862e+01 10 -3 22
365 1 3.1107869123877787e+00 2.1840543503647801e+01 2.0264590928762814e+01 2 70 -31
6 1 8.3904636749364254e+00 2.1019041770287146e+01 1.5829848142278848e+01 81 20 -32
495 1 1.1899431572805636e+01 1.9153441585341856e+01 1.5171882062859213e+01 -37 3 -66
456 1 9.4259430553475099e+00 2.3201819445798748e+01 1.7868278274796914e+01 -33 -37 15
42 1 5.6762713344350315e+00 2.2230845527893756e+01 1.8976746843592679e+01 -4 71 -65
277 1 8.1102565800245632e+00 1.8408591841978659e+01 1.5139529911408319e+01 35 8 116
423 1 1.0815700094431460e+01 2.1353553362052583e+01 1.9800770263570094e+01 -3 6 54
47 1 2.3305756948220742e+00 2.3965301159749160e+01 1.7052400289286211e+01 27 59 -105
98 1 9.2043975649884562e+00 1.9344961616849012e+01 1.8359725961067053e+01 74 79 -7
449 1 9.2665108107817868e+00 2.2918251136149706e+01 1.3564260795520424e+01 -60 72 31
295 1 5.6417739417016595e+00 1.3229771584986208e+01 1.6954468252354612e+01 -33 -13 -17
174 1 3.7888299620505723e+00 1.6708989411015104e+01 1.7187128591410094e+01 11 93 -14
337 1 3.0239660465231952e+00 1.4857318115033667e+01 1.9041172171656449e+01 29 12 -46
498 1 1.1556354882207366e+01 1.4484300544083307e+01 1.5617509733204527e+01 27 10 2
363 1 1.2167820601381303e+01 1.3951658742851350e+01 2.3658984891129585e+01 -18 -43 20
51 1 5.9912829954598958e+00 2.1782069102606574e+01 1.4266485183030017e+01 47 -9 -34
384 1 9.4289187215855552e+00 1.6824837993254281e+01 2.3259464375439300e+01 -5 10 1
291 1 9.0222621417069799e+00 1.2433826619508848e+01 1.9368634781055050e+01 33 104 69
254 1 6.3447714595307652e+00 1.6610306641665257e+01 1.6757282419308034e+01 40 95 37
383 1 1.2102396400546326e+01 1.5729555572646113e+01 1.2645724649748304e+01 -43 85 -33
166 1 5.3583235860740608e+00 2.4360579327107803e+01 1.7301459583425160e+01 33 -10 -15
168 1 4.2108667608947945e+00 1.4429731420512715e+01 1.2985629420269040e+01 91 -60 -57
320 1 2.4064647974784812e+00 1.7546868492733505e+01 1.9914907263978105e+01 27 87 38
12 1 1.0989863135383571e+01 2.1656155252362595e+01 1.5463987021522271e+01 44 -39 71
447 1 8.8636620062963694e+00 1.5085261815159848e+01 1.3155416066223241e+01 -15 -115 30
66 1 9.9382790929683882e+00 1.6543939622156806e+01 1.8613706280599740e+01 -14 43 -30
386 1 2.8543789208592911e+00 2.1717362558779939e+01 2.3121208793348302e+01 84 -49 -3
484 1 8.1641980762179625e+00 1.4851602260506027e+01 2.1802840034015535e+01 -36 -20 85
467 1 1.0651211850544456e+01 2.0428415414320856e+01 2.4794365038838997e+01 -57 92 36
16 1 1.6888798160723253e+00 2.0831456012901352e+01 1.7824887470693710e+01 149 97 -2
400 1 1.5534097763130934e+00 1.5107651103197320e+01 1.4136703887823160e+01 53 26 -19
410 1 1.7377998572593543e+00 1.8558503547747215e+01 1.6376028252979854e+01 21 137 7
405 1 6.3227915208250485e+00 1.4643173137401847e+01 1.4674067639038579e+01 -23 1 54
34 1 6.7980088573888375e+00 1.9758389321120813e+01 1.9467179070537121e+01 -126 -12 134
22 1 8.3727445734588741e+00 1.2467247566148460e+01 2.3748685593472178e+01 8 -72 69
175 1 6.1772667340228944e+00 1.6817551251127714e+01 2.2372533671291656e+01 41 2 -12
431 1 1.0504480989598788e+01 1.7238635272112163e+01 1.5816991434526949e+01 -74 -29 -25
126 1 3.5122108645433131e-01 1.7056505428143609e+01 2.2169067300055392e+01 -40 -33 -43
349 1 2.1201067558664581e+00 1.8960531478005105e+01 1.3520102338653157e+01 -17 23 53
114 1 9.5992541246150864e-02 1.4989251108590855e+01 2.3854471828477159e+01 -9 3 -15
108 1 8.2876145067597111e+00 2.1066756693716766e+01 2.1475140995429690e+01 34 -44 33
128 1 4.8450374917342396e+00 1.8681097400845299e+01 1.4842307137672321e+01 19 8 -34
511 1 7.0220769418082085e-02 1.6297188923100052e+01 1.9574638547177766e+01 40 6 94
127 1 1.1324878466956168e+01 1.7746762731064536e+01 2.1012721987214679e+01 63 68 82
458 1 1.2047165900585568e+01 2.2858424503617297e+01 1.2820864585276473e+01 -36 42 0
502 1 3.1069505871534755e+00 2.4782180355010173e+01 2.0732195016462100e+01 -43 -36 -42
401 1 4.4644352336529431e+00 2.4559690907464002e+01 1.4553823137386564e+01 35 19 14
133 1 4.8220571344975696e+00 1.8562302566569123e+01 2.0923173646392840e+01 -40 71 -56
442 1 1.3531488263432354e+00 1.9935438800517815e+01 2.1342761913515318e+01 22 -12 -103
209 1 6.9040176766415104e+00 2.4081426189103219e+01 1.2901722963076995e+01 7 3 -42
302 1 1.2642215615674073e+00 1.2912460141298283e+01 2.2566851860031932e+01 43 -70 -29
396 1 5.6378217793321275e+00 2.2172953487766542e+01 2.3564784525660443e+01 7 -3 24
381 1 7.4316485697613714e+00 1.4852053562758186e+01 1.8787044682444332e+01 25 -106 51
404 1 1.3649318341413113e+00 1.3708084414750415e+01 1.7260853084526808e+01 -19 128 51
361 1 3.8423291494656904e+00 1.2793654918347642e+01 2.0867911923885313e+01 -57 118 -6
283 1 5.6018648661294064e+00 1.4157250445508035e+01 2.3021888690970940e+01 87 -30 70
426 1 5.6442959106310053e-01 2.4052584544011196e+01 1.4969384614420058e+01 90 -12 66
76 1 6.4307487128134916e-02 1.9030959991999183e+01 2.4143508336466006e+01 31 42 12
188 1 8.9972318872015347e+00 1.7857966470908643e+01 1.2505073141125770e+01 16 2 67
285 1 5.7226621672312996e+00 2.0423443639989291e+01 1.6844634976446812e+01 -40 79 -17
509 1 3.9611365272437258e+00 1.9197352702847851e+01 2.3607290169619624e+01 118 46 -73
342 1 1.3011647112547844e+00 1.2555822010413385e+01 1.3095341356856201e+01 34 -6 7
322 1 4.2435294042226408e+00 1.6284222296146986e+01 2.4345475291562011e+01 32 57 -4
397 1 7.2186889900713638e+00 2.4727872231176161e+01 2.3879696013987274e+01 -51 55 -36
132 1 6.7299475781575833e+00 1.9517746218834830e+01 2.3654549004166416e+01 -44 2 -80
492 1 1.1984448343306985e+01 2.3306912534796442e+01 2.1580545712548570e+01 -9 -28 54
211 1 1.0427164355615478e+01 1.2464191959684845e+01 2.1950011828685508e+01 -33 13 -30
234 1 1.3886444969492526e+01 5.8268032314220584e+00 4.1635627432233742e+00 68 -4 18
280 1 2.0752738382904059e+01 6.0778424654334762e+00 6.6806228955070930e+00 13 -39 148
367 1 1.4788003830123767e+01 2.1893176150129645e+00 6.7000606266441478e+00 3 3 70
389 1 2.2606862226345317e+01 1.0764393921141194e+01 6.9635361823173119e+00 3 70 -30
309 1 1.4370793893657130e+01 3.1053756884819017e+00 9.2763880160501309e+00 51 64 -38
421 1 2.4769889589095531e+01 2.9127540632788946e+00 2.0564390970131647e+00 20 0 75
63 1 2.3254471161450727e+01 9.2077775954850871e+00 9.6056985147323459e+00 7 -1 -102
249 1 1.3972350647174514e+01 8.6189492311680755e+00 6.7817683830592355e+00 -69 -46 -28
359 1 2.0964124352258633e+01 1.0848399570841986e+01 1.1195040527373711e+01 -30 48 9
465 1 1.4748305746945487e+01 1.0654473539722906e+01 9.6373542420769276e+00 26 41 32
112 1 2.0035389778190247e+01 1.0973406463274065e+01 5.6443769598221150e-01 19 101 -33
409 1 1.2659909461665707e+01 5.3859704856017421e-01 5.2365534860087348e-01 -64 85 70
30 1 2.3526307392807915e+01 4.4652800003145625e+00 4.1966906773834403e+00 -86 2 -9
176 1 1.6570734761667673e+01 6.0375317528153616e+00 1.2139948897315616e+01 -96 -90 -25
334 1 1.3960616003440361e+01 9.2240246440753033e+00 4.2041508311142808e+00 52 66 12
113 1 1.7176312749766069e+01 1.2226842225832694e+01 1.0182013931509269e+01 -52 34 88
161 1 1.7156369546207635e+01 3.0498850922256096e+00 3.9448444451092666e+00 38 -31 43
93 1 1.9372742386883147e+01 1.1727585032279235e+01 4.2449453838382221e+00 -38 -6 14
212 1 1.9221212760958508e+01 6.5637730939940715e+00 8.9677323412802679e+00 -14 -37 -31
276 1 2.2261364077118103e+01 4.9185665570545192e+00 1.2162318098931012e+01 26 168 -27
3 1 1.8338454949488121e+01 5.8207202288812860e+00 5.3115088130981283e+00 14 55 24
417 1 1.9680116429419183e+01 8.5827215934018835e+00 5.3524791176466078e+00 0 9 -19
461 1 1.8064105098596510e+01 4.9409953338983176e-01 2.3839567391078220e+00 11 38 -2
430 1 2.3414183051878826e+01 1.5046982098369701e+00 6.2836477679906908e+00 58 45 10
81 1 1.6853844810215314e+01 2.1483977130410681e+00 1.0296555719653718e+01 52 95 -21
192 1 1.8065360051704157e+01 9.8793766909052252e+00 1.1925488756937384e+01 -73 75 -45
374 1 1.4981790043879368e+01 6.8475769704628826e+00 9.8368774963055881e+00 -10 36 -3
468 1 1.3017228114811644e+01 7.4902366721801767e+00 2.2572296260488991e+00 71 0 -54
314 1 2.0257079007151660e+01 3.0563025325017033e+00 1.1596819206901134e+01 -12 19 -11
236 1 1.7474015370395936e+01 5.0790605034369047e+00 1.9596493874211576e+00 37 78 63
477 1 1.6490041002489200e+01 1.0014247161797869e+01 2.9527719721374108e+00 39 -7 39
256 1 1.9176057492292333e+01 9.4655821726589959e+00 9.3657546873229620e+00 46 11 -29
151 1 1.9724587077012725e+01 1.0844067849665279e+01 6.9086630218897760e+00 -47 -40 -4
103 1 2.1996315642124355e+01 7.8274073755051399e+00 3.3988509582381998e+00 -15 43 -48
54 1 2.4327480931844899e+01 6.6648121621513789e+00 2.5203640777421410e+00 -14 7 43
214 1 2.0015872304532650e+01 6.4097785181404907e+00 1.8948730810028296e+00 10 98 7
60 1 1.8274066387201174e+01 9.4423481474880810e-01 7.9728217580029384e+00 -63 -28 67
177 1 2.0538419816570769e+01 6.0343960364636351e-01 9.6208561029504747e+00 -25 -41 44
469 1 2.1685981742305145e+01 1.9142616803998258e+00 2.5721937146013820e+00 49 11 37
377 1 1.2894212245632422e+01 1.5420860851036582e+00 4.9360303044914184e+00 17 20 -114
376 1 1.4626319296155375e+01 1.1113281821085897e+01 9.0240690202398310e-01 -82 -13 -14
501 1 1.2841665812707779e+01 5.5787637979153919e+00 8.7130505965945737e+00 28 -19 -8
237 1 2.2042073421451811e+01 1.0703526684268480e+01 3.0808962765356904e+00 20 -32 -20
245 1 1.8893225852612993e+01 9.2278698283308316e+00 2.5734399638694523e+00 -15 3 90
452 1 1.9839570877303039e+01 3.8442488319545327e+00 3.3812413054871500e+00 13 -2 86
45 1 1.8239050484706333e+01 4.4440954882968082e+00 1.0272800418849203e+01 2 83 -77
80 1 1.4580821273082632e+01 2.6475242900473863e+00 2.6770264624634930e+00 41 48 8
496 1 1.5874503241231249e+01 4.5325713322264756e+00 5.8718287524119024e+00 -1 -22 18
141 1 2.3360692975981330e+01 6.7211540755521204e+00 6.0983087523184061e+00 95 71 -6
251 1 2.1935821782447885e+01 6.6778076005907927e+00 9.3270386845430480e+00 -40 23 -52
270 1 1.4772605989708987e+01 5.2354969593064995e+00 1.4339413893515638e+00 13 124 111
281 1 2.1315149112006004e+01 3.5628635084926699e+00 5.9250711472387341e+00 39 -37 105
232 1 1.6620673652909936e+01 8.6924596719687148e+00 8.5424461244568271e+00 85 47 30
173 1 1.4140529970186417e+01 8.9351272253692837e+00 1.1753596590188996e+01 36 56 -7
287 1 2.4231621682173298e+01 5.3740610860122686e+00 8.6126892134271600e+00 -20 -13 -13
343 1 2.3055537385168805e+01 1.2004797975043084e+01 9.4533514279984576e+00 -67 21 142
170 1 2.4425973772057219e+01 8.1306931966967042e+00 8.0268993497345301e-02 7 41 -22
149 1 1.2611556798669231e+01 1.0306443002442278e+00 9.9108390246180580e+00 -60 56 2
433 1 2.2487408536128157e+01 8.2879980475772754e+00 1.2335343405331507e+01 16 -56 -44
146 1 1.2584737353915701e+01 1.2393719762438286e+01 1.2798140210271884e+00 -8 -18 4
327 1 1.5019907675819571e+01 8.8725084935484255e-01 1.9022685464990552e+01 89 11 -6
180 1 1.9650976503068751e+01 1.1971602624447591e+01 1.3424865304982601e+01 -2 289 -33
33 1 1.4905986711025339e+01 8.2572270229564770e-01 2.3645335361033176e+01 -102 -36 -20
279 1 1.8488017317754302e+01 6.7493642791528714e+00 1.8033207322384705e+01 -35 163 50
246 1 2.4347293238885168e+01 1.0465796431096631e+01 1.7291180979492474e+01 79 64 101
390 1 1.4829029103132203e+01 9.7519884395721945e-01 1.3737036513423224e+01 -16 -50 -23
155 1 1.4667875922312584e+01 3.1018323189327370e+00 1.7556940405743454e+01 -53 26 27
422 1 1.3427517020054314e+01 8.6051591523078153e-01 2.1306489593250145e+01 6 72 65
55 1 1.8238296501670607e+01 7.4320172518303789e+00 1.3698746981449341e+01 35 70 -29
157 1 1.3916808432151047e+01 9.4734516166793217e+00 2.3464504346446056e+01 -23 -29 64
35 1 1.7954391636390920e+01 8.2148152718204204e-01 2.4261449981849253e+01 -51 25 -48
4 1 2.4663747977137106e+01 4.5051658910020693e+00 2.0993973352841945e+01 19 -70 -8
122 1 2.2901919715514740e+01 9.9026819586716712e+00 1.4827849530335946e+01 -2 6 8
379 1 1.4879571477341864e+01 4.7284885221118804e+00 1.5312816036816798e+01 132 -8 57
471 1 1.4575220799422961e+01 1.1994533728534478e+01 2.1982862709521505e+01 -84 -21 18
169 1 2.4034732180948751e+01 6.7126983494497079e+00 2.2729842083536134e+01 -2 40 6
118 1 1.3828551517749357e+01 3.6180258020664824e+00 2.4002219362118765e+01 -21 126 -79
335 1 1.6207523195250616e+01 3.6002553931587462e+00 1.3287111875987101e+01 19 -24 94
100 1 1.5091967423121842e+01 9.6364783118354449e+00 1.6241620716829605e+01 45 -126 -19
57 1 1.7645043138687605e+01 8.4890546938457430e+00 1.6086772394989374e+01 -31 -9 36
50 1 1.7184131791386850e+01 6.3004258086374314e+00 2.4222711934365179e+01 14 29 -36
140 1 1.8329332422234074e+01 1.1090581667998492e+01 1.5764284250823628e+01 -63 29 -11
494 1 1.9702088948130108e+01 2.7722584259321499e+00 1.6218992879626402e+01 2 71 -85
228 1 1.8449437432597172e+01 1.0251345912487166e+01 2.1801136753119643e+01 -42 27 19
300 1 1.2424151018637579e+01 8.7388652728292531e+00 1.5757112562119412e+01 -74 63 30
507 1 1.7459734840837044e+01 8.3658841534182020e+00 2.0032314017166030e+01 -55 22 -18
32 1 1.4037499637801909e+01 9.6059756956314271e+00 2.0570432862486559e+01 -61 104 -43
284 1 1.6788042416200916e+01 3.4490528486499130e+00 2.3365781758072441e+01 -86 -62 -8
139 1 1.8617516097265746e+01 2.7896627466230002e+00 1.3842980852140879e+01 -17 -3 -25
258 1 1.5313710777208685e+01 7.4210721502240578e+00 2.1813928605777619e+01 114 -62 64
288 1 2.3803227334125424e+01 1.8113904956778879e+00 1.5364174131936034e+01 -63 -28 -81
223 1 1.2939395699985045e+01 9.4426664915893532e-01 1.6502265032541477e+01 120 37 16
1 1 2.0891328287299832e+01 1.0196418491372556e+01 2.2682695680474634e+01 -42 -48 66
182 1 2.2154694882957084e+01 3.4452125935174647e+00 2.0148671586731247e+01 123 42 42
102 1 1.6096752145714841e+01 1.0170738666419963e+01 1.8792496627203445e+01 21 -19 17