LAMMPS (4 Jan 2019)
# LAMMPS input script
boundary p p p
units       real
atom_style  atomic
atom_modify map array sort 0 0
read_data   data.in
  orthogonal box = (0.0191589 0.0191589 0.0191589) to (24.8158 24.8158 24.8158)
  1 by 2 by 3 MPI processor grid
  reading atoms ...
  512 atoms
  reading velocities ...
  512 velocities
pair_style  tersoff
pair_coeff  * * WT_ML-BOP.tersoff WT
Reading potential file WT_ML-BOP.tersoff with DATE: 2018-05-25

# ----- Variables -----
variable seed equal 51571
variable T equal 250.0000000000
variable P equal 986.923 # 1 bar

# ----- Initialize -----
neighbor 2.0 nsq
neigh_modify delay 0 every 1 check yes
timestep 5 # 5 fs   # Fix timestep here

# ----- Log file output -----
thermo       10000
thermo_style    custom  time temp press pe ke lx ly lz density vol
thermo_modify line multi norm yes flush yes format float %.6f

# ----- equilibruate --------
#velocity  all create ${T} ${seed}
fix 1 all npt temp ${T} ${T} 100 iso ${P} ${P} 1000
fix 1 all npt temp 250 ${T} 100 iso ${P} ${P} 1000
fix 1 all npt temp 250 250 100 iso ${P} ${P} 1000
fix 1 all npt temp 250 250 100 iso 986.923 ${P} 1000
fix 1 all npt temp 250 250 100 iso 986.923 986.923 1000
run 2000000 # 10 ns
Neighbor list info ...
  update every 1 steps, delay 0 steps, check yes
  max neighbors/atom: 2000, page size: 100000
  master list distance cutoff = 5.55327
  ghost atom cutoff = 5.55327
  1 neighbor lists, perpetual/occasional/extra = 1 0 0
  (1) pair tersoff, perpetual
      attributes: full, newton on
      pair build: full/nsq
      stencil: none
      bin: none
Per MPI rank memory allocation (min/avg/max) = 2.685 | 2.687 | 2.689 Mbytes
---------------- Step        0 ----- CPU =      0.0000 (sec) ----------------
Time     = 0.000000 Temp     = 294.450891 Press    = 562.722559 
PotEng   = -8.494318 KinEng   = 0.875988 Lx       = 24.796682 
Ly       = 24.796682 Lz       = 24.796682 Density  = 1.004569 
Volume   = 15246.871242 
---------------- Step    10000 ----- CPU =      6.1737 (sec) ----------------
Time     = 50000.000000 Temp     = 247.708736 Press    = 417.382751 
PotEng   = -8.680365 KinEng   = 0.736931 Lx       = 24.367745 
Ly       = 24.367745 Lz       = 24.367745 Density  = 1.058558 
Volume   = 14469.250996 
---------------- Step    20000 ----- CPU =     12.6890 (sec) ----------------
Time     = 100000.000000 Temp     = 259.080423 Press    = 95.384625 
PotEng   = -8.670789 KinEng   = 0.770761 Lx       = 24.377295 
Ly       = 24.377295 Lz       = 24.377295 Density  = 1.057314 
Volume   = 14486.268379 
---------------- Step    30000 ----- CPU =     18.9964 (sec) ----------------
Time     = 150000.000000 Temp     = 257.366371 Press    = 1458.153256 
PotEng   = -8.762486 KinEng   = 0.765662 Lx       = 24.408883 
Ly       = 24.408883 Lz       = 24.408883 Density  = 1.053214 
Volume   = 14542.655396 
---------------- Step    40000 ----- CPU =     25.3999 (sec) ----------------
Time     = 200000.000000 Temp     = 242.430769 Press    = 756.673484 
PotEng   = -8.712081 KinEng   = 0.721229 Lx       = 24.555930 
Ly       = 24.555930 Lz       = 24.555930 Density  = 1.034407 
Volume   = 14807.070674 
---------------- Step    50000 ----- CPU =     31.6880 (sec) ----------------
Time     = 250000.000000 Temp     = 246.393835 Press    = 501.524643 
PotEng   = -8.706806 KinEng   = 0.733019 Lx       = 24.493518 
Ly       = 24.493518 Lz       = 24.493518 Density  = 1.042334 
Volume   = 14694.455885 
---------------- Step    60000 ----- CPU =     38.1655 (sec) ----------------
Time     = 300000.000000 Temp     = 235.793075 Press    = 1087.502377 
PotEng   = -8.803445 KinEng   = 0.701482 Lx       = 24.401565 
Ly       = 24.401565 Lz       = 24.401565 Density  = 1.054162 
Volume   = 14529.579015 
---------------- Step    70000 ----- CPU =     44.4750 (sec) ----------------
Time     = 350000.000000 Temp     = 260.906244 Press    = 683.763659 
PotEng   = -8.797053 KinEng   = 0.776193 Lx       = 24.492304 
Ly       = 24.492304 Lz       = 24.492304 Density  = 1.042489 
Volume   = 14692.269898 
---------------- Step    80000 ----- CPU =     50.6911 (sec) ----------------
Time     = 400000.000000 Temp     = 242.331707 Press    = 857.508545 
PotEng   = -8.711263 KinEng   = 0.720934 Lx       = 24.381061 
Ly       = 24.381061 Lz       = 24.381061 Density  = 1.056824 
Volume   = 14492.983117 
---------------- Step    90000 ----- CPU =     57.0898 (sec) ----------------
Time     = 450000.000000 Temp     = 255.591617 Press    = 912.191382 
PotEng   = -8.772477 KinEng   = 0.760382 Lx       = 24.364876 
Ly       = 24.364876 Lz       = 24.364876 Density  = 1.058932 
Volume   = 14464.139162 
---------------- Step   100000 ----- CPU =     63.2726 (sec) ----------------
Time     = 500000.000000 Temp     = 229.420612 Press    = 1408.369567 
PotEng   = -8.764337 KinEng   = 0.682524 Lx       = 24.460678 
Ly       = 24.460678 Lz       = 24.460678 Density  = 1.046538 
Volume   = 14635.429858 
---------------- Step   110000 ----- CPU =     69.5327 (sec) ----------------
Time     = 550000.000000 Temp     = 261.542113 Press    = 1768.020853 
PotEng   = -8.736062 KinEng   = 0.778085 Lx       = 24.403196 
Ly       = 24.403196 Lz       = 24.403196 Density  = 1.053951 
Volume   = 14532.493922 
---------------- Step   120000 ----- CPU =     75.8314 (sec) ----------------
Time     = 600000.000000 Temp     = 246.219274 Press    = 1752.465817 
PotEng   = -8.680455 KinEng   = 0.732499 Lx       = 24.357436 
Ly       = 24.357436 Lz       = 24.357436 Density  = 1.059902 
Volume   = 14450.894269 
---------------- Step   130000 ----- CPU =     82.2879 (sec) ----------------
Time     = 650000.000000 Temp     = 245.746759 Press    = 1909.837873 
PotEng   = -8.731128 KinEng   = 0.731094 Lx       = 24.472244 
Ly       = 24.472244 Lz       = 24.472244 Density  = 1.045055 
Volume   = 14656.200148 
---------------- Step   140000 ----- CPU =     88.5985 (sec) ----------------
Time     = 700000.000000 Temp     = 235.914312 Press    = 2034.818443 
PotEng   = -8.725104 KinEng   = 0.701842 Lx       = 24.357707 
Ly       = 24.357707 Lz       = 24.357707 Density  = 1.059867 
Volume   = 14451.375662 
---------------- Step   150000 ----- CPU =     95.0987 (sec) ----------------
Time     = 750000.000000 Temp     = 264.558924 Press    = 2213.782746 
PotEng   = -8.727746 KinEng   = 0.787060 Lx       = 24.428392 
Ly       = 24.428392 Lz       = 24.428392 Density  = 1.050693 
Volume   = 14577.553499 
---------------- Step   160000 ----- CPU =    101.3552 (sec) ----------------
Time     = 800000.000000 Temp     = 247.037920 Press    = 974.797073 
PotEng   = -8.719388 KinEng   = 0.734935 Lx       = 24.492629 
Ly       = 24.492629 Lz       = 24.492629 Density  = 1.042448 
Volume   = 14692.855265 
---------------- Step   170000 ----- CPU =    107.6452 (sec) ----------------
Time     = 850000.000000 Temp     = 250.894404 Press    = 718.352634 
PotEng   = -8.708135 KinEng   = 0.746408 Lx       = 24.545528 
Ly       = 24.545528 Lz       = 24.545528 Density  = 1.035722 
Volume   = 14788.261602 
---------------- Step   180000 ----- CPU =    113.9496 (sec) ----------------
Time     = 900000.000000 Temp     = 255.499622 Press    = 1316.916378 
PotEng   = -8.699879 KinEng   = 0.760108 Lx       = 24.375277 
Ly       = 24.375277 Lz       = 24.375277 Density  = 1.057577 
Volume   = 14482.671478 
---------------- Step   190000 ----- CPU =    120.5225 (sec) ----------------
Time     = 950000.000000 Temp     = 246.006283 Press    = 2036.199742 
PotEng   = -8.686279 KinEng   = 0.731866 Lx       = 24.387995 
Ly       = 24.387995 Lz       = 24.387995 Density  = 1.055923 
Volume   = 14505.353126 
---------------- Step   200000 ----- CPU =    126.9078 (sec) ----------------
Time     = 1000000.000000 Temp     = 239.081482 Press    = 998.580940 
PotEng   = -8.648768 KinEng   = 0.711265 Lx       = 24.326952 
Ly       = 24.326952 Lz       = 24.326952 Density  = 1.063892 
Volume   = 14396.704320 
---------------- Step   210000 ----- CPU =    133.1756 (sec) ----------------
Time     = 1050000.000000 Temp     = 263.577723 Press    = 302.183462 
PotEng   = -8.698005 KinEng   = 0.784141 Lx       = 24.627945 
Ly       = 24.627945 Lz       = 24.627945 Density  = 1.025359 
Volume   = 14937.726385 
---------------- Step   220000 ----- CPU =    139.6092 (sec) ----------------
Time     = 1100000.000000 Temp     = 242.322512 Press    = 686.184234 
PotEng   = -8.709921 KinEng   = 0.720907 Lx       = 24.408435 
Ly       = 24.408435 Lz       = 24.408435 Density  = 1.053272 
Volume   = 14541.855150 
---------------- Step   230000 ----- CPU =    146.0248 (sec) ----------------
Time     = 1150000.000000 Temp     = 244.718622 Press    = 286.258785 
PotEng   = -8.690565 KinEng   = 0.728035 Lx       = 24.364196 
Ly       = 24.364196 Lz       = 24.364196 Density  = 1.059020 
Volume   = 14462.928426 
---------------- Step   240000 ----- CPU =    152.5902 (sec) ----------------
Time     = 1200000.000000 Temp     = 254.943064 Press    = 261.865994 
PotEng   = -8.753290 KinEng   = 0.758453 Lx       = 24.389644 
Ly       = 24.389644 Lz       = 24.389644 Density  = 1.055709 
Volume   = 14508.295633 
---------------- Step   250000 ----- CPU =    159.0329 (sec) ----------------
Time     = 1250000.000000 Temp     = 253.465277 Press    = 593.023299 
PotEng   = -8.779407 KinEng   = 0.754056 Lx       = 24.413985 
Ly       = 24.413985 Lz       = 24.413985 Density  = 1.052554 
Volume   = 14551.776548 
---------------- Step   260000 ----- CPU =    165.3535 (sec) ----------------
Time     = 1300000.000000 Temp     = 261.759087 Press    = 935.025681 
PotEng   = -8.730591 KinEng   = 0.778730 Lx       = 24.571477 
Ly       = 24.571477 Lz       = 24.571477 Density  = 1.032445 
Volume   = 14835.213338 
---------------- Step   270000 ----- CPU =    171.6583 (sec) ----------------
Time     = 1350000.000000 Temp     = 242.291145 Press    = 1087.340470 
PotEng   = -8.716446 KinEng   = 0.720813 Lx       = 24.425679 
Ly       = 24.425679 Lz       = 24.425679 Density  = 1.051043 
Volume   = 14572.696239 
---------------- Step   280000 ----- CPU =    178.0310 (sec) ----------------
Time     = 1400000.000000 Temp     = 246.607894 Press    = 1486.753391 
PotEng   = -8.758234 KinEng   = 0.733656 Lx       = 24.444083 
Ly       = 24.444083 Lz       = 24.444083 Density  = 1.048671 
Volume   = 14605.662363 
---------------- Step   290000 ----- CPU =    184.4263 (sec) ----------------
Time     = 1450000.000000 Temp     = 253.777620 Press    = 1407.028342 
PotEng   = -8.726873 KinEng   = 0.754985 Lx       = 24.380271 
Ly       = 24.380271 Lz       = 24.380271 Density  = 1.056927 
Volume   = 14491.574234 
---------------- Step   300000 ----- CPU =    190.6718 (sec) ----------------
Time     = 1500000.000000 Temp     = 257.219493 Press    = 1251.774149 
PotEng   = -8.773856 KinEng   = 0.765225 Lx       = 24.469105 
Ly       = 24.469105 Lz       = 24.469105 Density  = 1.045457 
Volume   = 14650.561436 
---------------- Step   310000 ----- CPU =    196.9636 (sec) ----------------
Time     = 1550000.000000 Temp     = 246.869443 Press    = 410.600204 
PotEng   = -8.690000 KinEng   = 0.734434 Lx       = 24.496771 
Ly       = 24.496771 Lz       = 24.496771 Density  = 1.041919 
Volume   = 14700.310282 
---------------- Step   320000 ----- CPU =    203.3938 (sec) ----------------
Time     = 1600000.000000 Temp     = 257.688782 Press    = 2347.956502 
PotEng   = -8.730501 KinEng   = 0.766621 Lx       = 24.288936 
Ly       = 24.288936 Lz       = 24.288936 Density  = 1.068895 
Volume   = 14329.316632 
---------------- Step   330000 ----- CPU =    209.7097 (sec) ----------------
Time     = 1650000.000000 Temp     = 227.134915 Press    = -320.552453 
PotEng   = -8.703950 KinEng   = 0.675724 Lx       = 24.462493 
Ly       = 24.462493 Lz       = 24.462493 Density  = 1.046305 
Volume   = 14638.686956 
---------------- Step   340000 ----- CPU =    215.9760 (sec) ----------------
Time     = 1700000.000000 Temp     = 238.088086 Press    = 1369.879417 
PotEng   = -8.712301 KinEng   = 0.708309 Lx       = 24.310496 
Ly       = 24.310496 Lz       = 24.310496 Density  = 1.066054 
Volume   = 14367.508804 
---------------- Step   350000 ----- CPU =    222.3289 (sec) ----------------
Time     = 1750000.000000 Temp     = 240.141391 Press    = 761.219114 
PotEng   = -8.698680 KinEng   = 0.714418 Lx       = 24.517290 
Ly       = 24.517290 Lz       = 24.517290 Density  = 1.039305 
Volume   = 14737.281519 
---------------- Step   360000 ----- CPU =    228.6351 (sec) ----------------
Time     = 1800000.000000 Temp     = 253.804707 Press    = 1550.492611 
PotEng   = -8.771652 KinEng   = 0.755066 Lx       = 24.456734 
Ly       = 24.456734 Lz       = 24.456734 Density  = 1.047044 
Volume   = 14628.352129 
---------------- Step   370000 ----- CPU =    235.0371 (sec) ----------------
Time     = 1850000.000000 Temp     = 270.470508 Press    = 1345.769239 
PotEng   = -8.724769 KinEng   = 0.804647 Lx       = 24.431860 
Ly       = 24.431860 Lz       = 24.431860 Density  = 1.050246 
Volume   = 14583.762259 
---------------- Step   380000 ----- CPU =    241.4343 (sec) ----------------
Time     = 1900000.000000 Temp     = 250.514867 Press    = 154.645520 
PotEng   = -8.685955 KinEng   = 0.745279 Lx       = 24.495623 
Ly       = 24.495623 Lz       = 24.495623 Density  = 1.042066 
Volume   = 14698.244514 
---------------- Step   390000 ----- CPU =    247.8152 (sec) ----------------
Time     = 1950000.000000 Temp     = 249.849056 Press    = 1554.571576 
PotEng   = -8.725582 KinEng   = 0.743298 Lx       = 24.324278 
Ly       = 24.324278 Lz       = 24.324278 Density  = 1.064243 
Volume   = 14391.957884 
---------------- Step   400000 ----- CPU =    254.3037 (sec) ----------------
Time     = 2000000.000000 Temp     = 235.126404 Press    = 592.340794 
PotEng   = -8.755320 KinEng   = 0.699498 Lx       = 24.366349 
Ly       = 24.366349 Lz       = 24.366349 Density  = 1.058740 
Volume   = 14466.763294 
---------------- Step   410000 ----- CPU =    260.6215 (sec) ----------------
Time     = 2050000.000000 Temp     = 246.848491 Press    = 72.054860 
PotEng   = -8.723955 KinEng   = 0.734371 Lx       = 24.405852 
Ly       = 24.405852 Lz       = 24.405852 Density  = 1.053607 
Volume   = 14537.238835 
---------------- Step   420000 ----- CPU =    267.0630 (sec) ----------------
Time     = 2100000.000000 Temp     = 239.977589 Press    = 901.387932 
PotEng   = -8.720683 KinEng   = 0.713930 Lx       = 24.540853 
Ly       = 24.540853 Lz       = 24.540853 Density  = 1.036314 
Volume   = 14779.814271 
---------------- Step   430000 ----- CPU =    273.3208 (sec) ----------------
Time     = 2150000.000000 Temp     = 246.682461 Press    = 1975.740637 
PotEng   = -8.701057 KinEng   = 0.733877 Lx       = 24.263726 
Ly       = 24.263726 Lz       = 24.263726 Density  = 1.072230 
Volume   = 14284.744737 
---------------- Step   440000 ----- CPU =    279.7142 (sec) ----------------
Time     = 2200000.000000 Temp     = 238.157169 Press    = 934.513290 
PotEng   = -8.702578 KinEng   = 0.708515 Lx       = 24.387138 
Ly       = 24.387138 Lz       = 24.387138 Density  = 1.056034 
Volume   = 14503.824161 
---------------- Step   450000 ----- CPU =    286.2013 (sec) ----------------
Time     = 2250000.000000 Temp     = 248.466458 Press    = 2144.698531 
PotEng   = -8.678238 KinEng   = 0.739185 Lx       = 24.401984 
Ly       = 24.401984 Lz       = 24.401984 Density  = 1.054108 
Volume   = 14530.327227 
---------------- Step   460000 ----- CPU =    292.5627 (sec) ----------------
Time     = 2300000.000000 Temp     = 242.806197 Press    = 1335.889818 
PotEng   = -8.712439 KinEng   = 0.722346 Lx       = 24.267962 
Ly       = 24.267962 Lz       = 24.267962 Density  = 1.071669 
Volume   = 14292.226935 
---------------- Step   470000 ----- CPU =    299.0033 (sec) ----------------
Time     = 2350000.000000 Temp     = 245.163622 Press    = 1788.845192 
PotEng   = -8.695436 KinEng   = 0.729359 Lx       = 24.321682 
Ly       = 24.321682 Lz       = 24.321682 Density  = 1.064583 
Volume   = 14387.350161 
---------------- Step   480000 ----- CPU =    305.2556 (sec) ----------------
Time     = 2400000.000000 Temp     = 265.596600 Press    = 628.427823 
PotEng   = -8.696599 KinEng   = 0.790147 Lx       = 24.430636 
Ly       = 24.430636 Lz       = 24.430636 Density  = 1.050404 
Volume   = 14581.571759 
---------------- Step   490000 ----- CPU =    311.6519 (sec) ----------------
Time     = 2450000.000000 Temp     = 250.453162 Press    = 935.585640 
PotEng   = -8.680540 KinEng   = 0.745095 Lx       = 24.290903 
Ly       = 24.290903 Lz       = 24.290903 Density  = 1.068635 
Volume   = 14332.797866 
---------------- Step   500000 ----- CPU =    317.9335 (sec) ----------------
Time     = 2500000.000000 Temp     = 268.534460 Press    = 573.968380 
PotEng   = -8.762977 KinEng   = 0.798887 Lx       = 24.623435 
Ly       = 24.623435 Lz       = 24.623435 Density  = 1.025923 
Volume   = 14929.521631 
---------------- Step   510000 ----- CPU =    324.2388 (sec) ----------------
Time     = 2550000.000000 Temp     = 248.277741 Press    = 1277.400152 
PotEng   = -8.718350 KinEng   = 0.738623 Lx       = 24.393246 
Ly       = 24.393246 Lz       = 24.393246 Density  = 1.055241 
Volume   = 14514.723526 
---------------- Step   520000 ----- CPU =    330.7178 (sec) ----------------
Time     = 2600000.000000 Temp     = 263.326774 Press    = 1096.208522 
PotEng   = -8.720316 KinEng   = 0.783394 Lx       = 24.388151 
Ly       = 24.388151 Lz       = 24.388151 Density  = 1.055903 
Volume   = 14505.630688 
---------------- Step   530000 ----- CPU =    337.0699 (sec) ----------------
Time     = 2650000.000000 Temp     = 260.885756 Press    = 2434.739285 
PotEng   = -8.736223 KinEng   = 0.776132 Lx       = 24.509704 
Ly       = 24.509704 Lz       = 24.509704 Density  = 1.040271 
Volume   = 14723.605663 
---------------- Step   540000 ----- CPU =    343.3994 (sec) ----------------
Time     = 2700000.000000 Temp     = 252.887405 Press    = 2092.348459 
PotEng   = -8.684268 KinEng   = 0.752337 Lx       = 24.484150 
Ly       = 24.484150 Lz       = 24.484150 Density  = 1.043531 
Volume   = 14677.601621 
---------------- Step   550000 ----- CPU =    349.6900 (sec) ----------------
Time     = 2750000.000000 Temp     = 257.212772 Press    = 360.749858 
PotEng   = -8.763626 KinEng   = 0.765205 Lx       = 24.511700 
Ly       = 24.511700 Lz       = 24.511700 Density  = 1.040016 
Volume   = 14727.203686 
---------------- Step   560000 ----- CPU =    356.1895 (sec) ----------------
Time     = 2800000.000000 Temp     = 234.041554 Press    = -16.217085 
PotEng   = -8.752782 KinEng   = 0.696271 Lx       = 24.561403 
Ly       = 24.561403 Lz       = 24.561403 Density  = 1.033715 
Volume   = 14816.973704 
---------------- Step   570000 ----- CPU =    362.5119 (sec) ----------------
Time     = 2850000.000000 Temp     = 240.612913 Press    = 1570.406467 
PotEng   = -8.699265 KinEng   = 0.715821 Lx       = 24.380587 
Ly       = 24.380587 Lz       = 24.380587 Density  = 1.056886 
Volume   = 14492.138563 
---------------- Step   580000 ----- CPU =    368.8701 (sec) ----------------
Time     = 2900000.000000 Temp     = 248.508231 Press    = 1328.089462 
PotEng   = -8.780789 KinEng   = 0.739309 Lx       = 24.487138 
Ly       = 24.487138 Lz       = 24.487138 Density  = 1.043149 
Volume   = 14682.975249 
---------------- Step   590000 ----- CPU =    375.2652 (sec) ----------------
Time     = 2950000.000000 Temp     = 243.642105 Press    = 993.587782 
PotEng   = -8.707564 KinEng   = 0.724832 Lx       = 24.483448 
Ly       = 24.483448 Lz       = 24.483448 Density  = 1.043621 
Volume   = 14676.338986 
---------------- Step   600000 ----- CPU =    381.6224 (sec) ----------------
Time     = 3000000.000000 Temp     = 242.729141 Press    = 436.582757 
PotEng   = -8.768415 KinEng   = 0.722116 Lx       = 24.394538 
Ly       = 24.394538 Lz       = 24.394538 Density  = 1.055074 
Volume   = 14517.029762 
---------------- Step   610000 ----- CPU =    387.9130 (sec) ----------------
Time     = 3050000.000000 Temp     = 243.016399 Press    = 1602.449267 
PotEng   = -8.685194 KinEng   = 0.722971 Lx       = 24.305216 
Ly       = 24.305216 Lz       = 24.305216 Density  = 1.066748 
Volume   = 14358.149829 
---------------- Step   620000 ----- CPU =    394.3569 (sec) ----------------
Time     = 3100000.000000 Temp     = 245.268898 Press    = 1009.166191 
PotEng   = -8.724140 KinEng   = 0.729672 Lx       = 24.529171 
Ly       = 24.529171 Lz       = 24.529171 Density  = 1.037796 
Volume   = 14758.718101 
---------------- Step   630000 ----- CPU =    400.6535 (sec) ----------------
Time     = 3150000.000000 Temp     = 254.915792 Press    = 1051.978714 
PotEng   = -8.671153 KinEng   = 0.758371 Lx       = 24.387108 
Ly       = 24.387108 Lz       = 24.387108 Density  = 1.056038 
Volume   = 14503.769473 
---------------- Step   640000 ----- CPU =    407.1281 (sec) ----------------
Time     = 3200000.000000 Temp     = 245.720036 Press    = 1422.065111 
PotEng   = -8.730205 KinEng   = 0.731014 Lx       = 24.465695 
Ly       = 24.465695 Lz       = 24.465695 Density  = 1.045894 
Volume   = 14644.436813 
---------------- Step   650000 ----- CPU =    413.3717 (sec) ----------------
Time     = 3250000.000000 Temp     = 246.286698 Press    = 1274.155760 
PotEng   = -8.779476 KinEng   = 0.732700 Lx       = 24.449333 
Ly       = 24.449333 Lz       = 24.449333 Density  = 1.047996 
Volume   = 14615.075046 
---------------- Step   660000 ----- CPU =    419.7996 (sec) ----------------
Time     = 3300000.000000 Temp     = 243.855460 Press    = 654.381343 
PotEng   = -8.668618 KinEng   = 0.725467 Lx       = 24.473744 
Ly       = 24.473744 Lz       = 24.473744 Density  = 1.044863 
Volume   = 14658.895557 
---------------- Step   670000 ----- CPU =    426.0866 (sec) ----------------
Time     = 3350000.000000 Temp     = 255.375825 Press    = 2223.531615 
PotEng   = -8.712866 KinEng   = 0.759740 Lx       = 24.414035 
Ly       = 24.414035 Lz       = 24.414035 Density  = 1.052548 
Volume   = 14551.865974 
---------------- Step   680000 ----- CPU =    432.3706 (sec) ----------------
Time     = 3400000.000000 Temp     = 245.847641 Press    = -218.248140 
PotEng   = -8.705969 KinEng   = 0.731394 Lx       = 24.610408 
Ly       = 24.610408 Lz       = 24.610408 Density  = 1.027553 
Volume   = 14905.839503 
---------------- Step   690000 ----- CPU =    438.8231 (sec) ----------------
Time     = 3450000.000000 Temp     = 245.092015 Press    = 1243.147534 
PotEng   = -8.718850 KinEng   = 0.729146 Lx       = 24.303997 
Ly       = 24.303997 Lz       = 24.303997 Density  = 1.066909 
Volume   = 14355.988835 
---------------- Step   700000 ----- CPU =    445.2094 (sec) ----------------
Time     = 3500000.000000 Temp     = 257.619578 Press    = 639.950698 
PotEng   = -8.759626 KinEng   = 0.766415 Lx       = 24.392484 
Ly       = 24.392484 Lz       = 24.392484 Density  = 1.055340 
Volume   = 14513.363582 
---------------- Step   710000 ----- CPU =    451.6642 (sec) ----------------
Time     = 3550000.000000 Temp     = 250.113018 Press    = 47.958439 
PotEng   = -8.715444 KinEng   = 0.744083 Lx       = 24.402508 
Ly       = 24.402508 Lz       = 24.402508 Density  = 1.054040 
Volume   = 14531.264000 
---------------- Step   720000 ----- CPU =    458.1124 (sec) ----------------
Time     = 3600000.000000 Temp     = 257.562688 Press    = 1135.542220 
PotEng   = -8.751544 KinEng   = 0.766246 Lx       = 24.434598 
Ly       = 24.434598 Lz       = 24.434598 Density  = 1.049893 
Volume   = 14588.666215 
---------------- Step   730000 ----- CPU =    464.4652 (sec) ----------------
Time     = 3650000.000000 Temp     = 254.852881 Press    = 1862.923814 
PotEng   = -8.661222 KinEng   = 0.758184 Lx       = 24.459335 
Ly       = 24.459335 Lz       = 24.459335 Density  = 1.046710 
Volume   = 14633.019630 
---------------- Step   740000 ----- CPU =    470.8742 (sec) ----------------
Time     = 3700000.000000 Temp     = 250.995548 Press    = 734.963896 
PotEng   = -8.725582 KinEng   = 0.746709 Lx       = 24.531125 
Ly       = 24.531125 Lz       = 24.531125 Density  = 1.037548 
Volume   = 14762.244074 
---------------- Step   750000 ----- CPU =    477.2333 (sec) ----------------
Time     = 3750000.000000 Temp     = 244.682550 Press    = 413.020163 
PotEng   = -8.712071 KinEng   = 0.727928 Lx       = 24.554107 
Ly       = 24.554107 Lz       = 24.554107 Density  = 1.034637 
Volume   = 14803.774254 
---------------- Step   760000 ----- CPU =    483.5021 (sec) ----------------
Time     = 3800000.000000 Temp     = 247.025067 Press    = 363.120508 
PotEng   = -8.772544 KinEng   = 0.734897 Lx       = 24.433846 
Ly       = 24.433846 Lz       = 24.433846 Density  = 1.049990 
Volume   = 14587.320134 
---------------- Step   770000 ----- CPU =    489.8238 (sec) ----------------
Time     = 3850000.000000 Temp     = 257.221654 Press    = 460.442445 
PotEng   = -8.693269 KinEng   = 0.765231 Lx       = 24.479508 
Ly       = 24.479508 Lz       = 24.479508 Density  = 1.044125 
Volume   = 14669.254898 
---------------- Step   780000 ----- CPU =    496.0015 (sec) ----------------
Time     = 3900000.000000 Temp     = 257.151548 Press    = 46.286839 
PotEng   = -8.746264 KinEng   = 0.765023 Lx       = 24.624665 
Ly       = 24.624665 Lz       = 24.624665 Density  = 1.025769 
Volume   = 14931.759924 
---------------- Step   790000 ----- CPU =    502.2602 (sec) ----------------
Time     = 3950000.000000 Temp     = 256.779609 Press    = 1533.188245 
PotEng   = -8.738795 KinEng   = 0.763916 Lx       = 24.396096 
Ly       = 24.396096 Lz       = 24.396096 Density  = 1.054871 
Volume   = 14519.813132 
---------------- Step   800000 ----- CPU =    508.5526 (sec) ----------------
Time     = 4000000.000000 Temp     = 245.159071 Press    = 385.789696 
PotEng   = -8.751676 KinEng   = 0.729345 Lx       = 24.473380 
Ly       = 24.473380 Lz       = 24.473380 Density  = 1.044910 
Volume   = 14658.240381 
---------------- Step   810000 ----- CPU =    515.1137 (sec) ----------------
Time     = 4050000.000000 Temp     = 256.085518 Press    = 1061.497565 
PotEng   = -8.755468 KinEng   = 0.761851 Lx       = 24.455327 
Ly       = 24.455327 Lz       = 24.455327 Density  = 1.047225 
Volume   = 14625.827073 
---------------- Step   820000 ----- CPU =    521.5528 (sec) ----------------
Time     = 4100000.000000 Temp     = 242.088950 Press    = 774.833047 
PotEng   = -8.713726 KinEng   = 0.720212 Lx       = 24.414828 
Ly       = 24.414828 Lz       = 24.414828 Density  = 1.052445 
Volume   = 14553.283679 
---------------- Step   830000 ----- CPU =    527.8874 (sec) ----------------
Time     = 4150000.000000 Temp     = 248.393120 Press    = 864.554791 
PotEng   = -8.681724 KinEng   = 0.738967 Lx       = 24.494514 
Ly       = 24.494514 Lz       = 24.494514 Density  = 1.042207 
Volume   = 14696.248603 
---------------- Step   840000 ----- CPU =    534.3373 (sec) ----------------
Time     = 4200000.000000 Temp     = 250.883554 Press    = 1119.166735 
PotEng   = -8.715358 KinEng   = 0.746376 Lx       = 24.383955 
Ly       = 24.383955 Lz       = 24.383955 Density  = 1.056448 
Volume   = 14498.145391 
---------------- Step   850000 ----- CPU =    540.7029 (sec) ----------------
Time     = 4250000.000000 Temp     = 259.610866 Press    = 1513.716576 
PotEng   = -8.797889 KinEng   = 0.772339 Lx       = 24.423738 
Ly       = 24.423738 Lz       = 24.423738 Density  = 1.051294 
Volume   = 14569.222686 
---------------- Step   860000 ----- CPU =    547.1219 (sec) ----------------
Time     = 4300000.000000 Temp     = 253.497072 Press    = 191.631410 
PotEng   = -8.704631 KinEng   = 0.754151 Lx       = 24.488160 
Ly       = 24.488160 Lz       = 24.488160 Density  = 1.043019 
Volume   = 14684.814023 
---------------- Step   870000 ----- CPU =    553.4263 (sec) ----------------
Time     = 4350000.000000 Temp     = 249.700428 Press    = 1131.365420 
PotEng   = -8.668458 KinEng   = 0.742856 Lx       = 24.339408 
Ly       = 24.339408 Lz       = 24.339408 Density  = 1.062259 
Volume   = 14418.830818 
---------------- Step   880000 ----- CPU =    559.8069 (sec) ----------------
Time     = 4400000.000000 Temp     = 256.993064 Press    = 1557.177567 
PotEng   = -8.668507 KinEng   = 0.764551 Lx       = 24.428276 
Ly       = 24.428276 Lz       = 24.428276 Density  = 1.050708 
Volume   = 14577.345211 
---------------- Step   890000 ----- CPU =    566.0806 (sec) ----------------
Time     = 4450000.000000 Temp     = 266.372281 Press    = 232.399789 
PotEng   = -8.728173 KinEng   = 0.792454 Lx       = 24.444203 
Ly       = 24.444203 Lz       = 24.444203 Density  = 1.048656 
Volume   = 14605.876786 
---------------- Step   900000 ----- CPU =    572.4658 (sec) ----------------
Time     = 4500000.000000 Temp     = 243.945625 Press    = 1695.098636 
PotEng   = -8.775867 KinEng   = 0.725735 Lx       = 24.498900 
Ly       = 24.498900 Lz       = 24.498900 Density  = 1.041648 
Volume   = 14704.143683 
---------------- Step   910000 ----- CPU =    578.8795 (sec) ----------------
Time     = 4550000.000000 Temp     = 247.571840 Press    = 1245.485085 
PotEng   = -8.741438 KinEng   = 0.736523 Lx       = 24.414875 
Ly       = 24.414875 Lz       = 24.414875 Density  = 1.052439 
Volume   = 14553.368751 
---------------- Step   920000 ----- CPU =    585.2260 (sec) ----------------
Time     = 4600000.000000 Temp     = 235.835112 Press    = 477.102066 
PotEng   = -8.703858 KinEng   = 0.701607 Lx       = 24.494457 
Ly       = 24.494457 Lz       = 24.494457 Density  = 1.042214 
Volume   = 14696.146005 
---------------- Step   930000 ----- CPU =    591.6993 (sec) ----------------
Time     = 4650000.000000 Temp     = 256.288111 Press    = 293.950624 
PotEng   = -8.684505 KinEng   = 0.762454 Lx       = 24.442008 
Ly       = 24.442008 Lz       = 24.442008 Density  = 1.048938 
Volume   = 14601.943136 
---------------- Step   940000 ----- CPU =    598.0193 (sec) ----------------
Time     = 4700000.000000 Temp     = 260.466900 Press    = 1359.406900 
PotEng   = -8.748978 KinEng   = 0.774886 Lx       = 24.493283 
Ly       = 24.493283 Lz       = 24.493283 Density  = 1.042364 
Volume   = 14694.033333 
---------------- Step   950000 ----- CPU =    604.2341 (sec) ----------------
Time     = 4750000.000000 Temp     = 255.424409 Press    = 254.530104 
PotEng   = -8.739749 KinEng   = 0.759885 Lx       = 24.580320 
Ly       = 24.580320 Lz       = 24.580320 Density  = 1.031331 
Volume   = 14851.235754 
---------------- Step   960000 ----- CPU =    610.6433 (sec) ----------------
Time     = 4800000.000000 Temp     = 247.000099 Press    = 298.380020 
PotEng   = -8.671387 KinEng   = 0.734822 Lx       = 24.417132 
Ly       = 24.417132 Lz       = 24.417132 Density  = 1.052147 
Volume   = 14557.405216 
---------------- Step   970000 ----- CPU =    616.8825 (sec) ----------------
Time     = 4850000.000000 Temp     = 251.409593 Press    = 904.325453 
PotEng   = -8.742979 KinEng   = 0.747941 Lx       = 24.439470 
Ly       = 24.439470 Lz       = 24.439470 Density  = 1.049265 
Volume   = 14597.395171 
---------------- Step   980000 ----- CPU =    623.1849 (sec) ----------------
Time     = 4900000.000000 Temp     = 252.249981 Press    = 775.614732 
PotEng   = -8.790115 KinEng   = 0.750441 Lx       = 24.422253 
Ly       = 24.422253 Lz       = 24.422253 Density  = 1.051486 
Volume   = 14566.566246 
---------------- Step   990000 ----- CPU =    629.5688 (sec) ----------------
Time     = 4950000.000000 Temp     = 246.844367 Press    = 1780.409093 
PotEng   = -8.709853 KinEng   = 0.734359 Lx       = 24.335329 
Ly       = 24.335329 Lz       = 24.335329 Density  = 1.062793 
Volume   = 14411.581557 
---------------- Step  1000000 ----- CPU =    635.9720 (sec) ----------------
Time     = 5000000.000000 Temp     = 253.422244 Press    = 1165.373839 
PotEng   = -8.819747 KinEng   = 0.753928 Lx       = 24.467846 
Ly       = 24.467846 Lz       = 24.467846 Density  = 1.045619 
Volume   = 14648.299763 
---------------- Step  1010000 ----- CPU =    642.3478 (sec) ----------------
Time     = 5050000.000000 Temp     = 238.767634 Press    = -137.325891 
PotEng   = -8.784826 KinEng   = 0.710331 Lx       = 24.625773 
Ly       = 24.625773 Lz       = 24.625773 Density  = 1.025631 
Volume   = 14933.774541 
---------------- Step  1020000 ----- CPU =    648.8689 (sec) ----------------
Time     = 5100000.000000 Temp     = 256.446337 Press    = 269.930529 
PotEng   = -8.771395 KinEng   = 0.762925 Lx       = 24.463808 
Ly       = 24.463808 Lz       = 24.463808 Density  = 1.046136 
Volume   = 14641.049237 
---------------- Step  1030000 ----- CPU =    655.1166 (sec) ----------------
Time     = 5150000.000000 Temp     = 244.993165 Press    = 1512.876231 
PotEng   = -8.703812 KinEng   = 0.728852 Lx       = 24.390097 
Ly       = 24.390097 Lz       = 24.390097 Density  = 1.055650 
Volume   = 14509.103234 
---------------- Step  1040000 ----- CPU =    661.5094 (sec) ----------------
Time     = 5200000.000000 Temp     = 252.285990 Press    = 1031.762609 
PotEng   = -8.750079 KinEng   = 0.750548 Lx       = 24.536209 
Ly       = 24.536209 Lz       = 24.536209 Density  = 1.036903 
Volume   = 14771.425610 
---------------- Step  1050000 ----- CPU =    667.8269 (sec) ----------------
Time     = 5250000.000000 Temp     = 257.737922 Press    = -198.578112 
PotEng   = -8.724245 KinEng   = 0.766767 Lx       = 24.554452 
Ly       = 24.554452 Lz       = 24.554452 Density  = 1.034594 
Volume   = 14804.397980 
---------------- Step  1060000 ----- CPU =    674.1372 (sec) ----------------
Time     = 5300000.000000 Temp     = 260.775858 Press    = 888.112345 
PotEng   = -8.698730 KinEng   = 0.775805 Lx       = 24.587250 
Ly       = 24.587250 Lz       = 24.587250 Density  = 1.030459 
Volume   = 14863.800197 
---------------- Step  1070000 ----- CPU =    680.4851 (sec) ----------------
Time     = 5350000.000000 Temp     = 268.134406 Press    = 1535.904149 
PotEng   = -8.789003 KinEng   = 0.797697 Lx       = 24.458220 
Ly       = 24.458220 Lz       = 24.458220 Density  = 1.046854 
Volume   = 14631.017738 
---------------- Step  1080000 ----- CPU =    686.7754 (sec) ----------------
Time     = 5400000.000000 Temp     = 241.429254 Press    = 944.856280 
PotEng   = -8.705019 KinEng   = 0.718249 Lx       = 24.478704 
Ly       = 24.478704 Lz       = 24.478704 Density  = 1.044228 
Volume   = 14667.810422 
---------------- Step  1090000 ----- CPU =    693.1234 (sec) ----------------
Time     = 5450000.000000 Temp     = 236.663669 Press    = 648.875644 
PotEng   = -8.725466 KinEng   = 0.704072 Lx       = 24.393333 
Ly       = 24.393333 Lz       = 24.393333 Density  = 1.055230 
Volume   = 14514.880227 
---------------- Step  1100000 ----- CPU =    699.4767 (sec) ----------------
Time     = 5500000.000000 Temp     = 254.282361 Press    = 1164.212546 
PotEng   = -8.725784 KinEng   = 0.756487 Lx       = 24.391109 
Ly       = 24.391109 Lz       = 24.391109 Density  = 1.055519 
Volume   = 14510.908996 
---------------- Step  1110000 ----- CPU =    705.8379 (sec) ----------------
Time     = 5550000.000000 Temp     = 250.453555 Press    = 1017.740607 
PotEng   = -8.788855 KinEng   = 0.745096 Lx       = 24.473481 
Ly       = 24.473481 Lz       = 24.473481 Density  = 1.044897 
Volume   = 14658.422774 
---------------- Step  1120000 ----- CPU =    712.2148 (sec) ----------------
Time     = 5600000.000000 Temp     = 225.641545 Press    = 1821.256978 
PotEng   = -8.709991 KinEng   = 0.671281 Lx       = 24.531624 
Ly       = 24.531624 Lz       = 24.531624 Density  = 1.037484 
Volume   = 14763.146154 
---------------- Step  1130000 ----- CPU =    718.5214 (sec) ----------------
Time     = 5650000.000000 Temp     = 252.257142 Press    = 1277.539320 
PotEng   = -8.681564 KinEng   = 0.750462 Lx       = 24.437117 
Ly       = 24.437117 Lz       = 24.437117 Density  = 1.049568 
Volume   = 14593.179705 
---------------- Step  1140000 ----- CPU =    724.8227 (sec) ----------------
Time     = 5700000.000000 Temp     = 249.820081 Press    = 562.597880 
PotEng   = -8.740056 KinEng   = 0.743212 Lx       = 24.422505 
Ly       = 24.422505 Lz       = 24.422505 Density  = 1.051453 
Volume   = 14567.016382 
---------------- Step  1150000 ----- CPU =    731.1881 (sec) ----------------
Time     = 5750000.000000 Temp     = 249.141687 Press    = 127.689644 
PotEng   = -8.824742 KinEng   = 0.741194 Lx       = 24.440118 
Ly       = 24.440118 Lz       = 24.440118 Density  = 1.049181 
Volume   = 14598.556425 
---------------- Step  1160000 ----- CPU =    737.5782 (sec) ----------------
Time     = 5800000.000000 Temp     = 252.523799 Press    = 543.661369 
PotEng   = -8.739191 KinEng   = 0.751255 Lx       = 24.409049 
Ly       = 24.409049 Lz       = 24.409049 Density  = 1.053193 
Volume   = 14542.951801 
---------------- Step  1170000 ----- CPU =    744.0089 (sec) ----------------
Time     = 5850000.000000 Temp     = 231.087792 Press    = 891.715518 
PotEng   = -8.716170 KinEng   = 0.687483 Lx       = 24.557303 
Ly       = 24.557303 Lz       = 24.557303 Density  = 1.034233 
Volume   = 14809.554438 
---------------- Step  1180000 ----- CPU =    750.2462 (sec) ----------------
Time     = 5900000.000000 Temp     = 260.670313 Press    = 1395.313751 
PotEng   = -8.757020 KinEng   = 0.775491 Lx       = 24.447717 
Ly       = 24.447717 Lz       = 24.447717 Density  = 1.048203 
Volume   = 14612.177327 
---------------- Step  1190000 ----- CPU =    756.4943 (sec) ----------------
Time     = 5950000.000000 Temp     = 247.975662 Press    = 601.453278 
PotEng   = -8.696882 KinEng   = 0.737725 Lx       = 24.557643 
Ly       = 24.557643 Lz       = 24.557643 Density  = 1.034190 
Volume   = 14810.169360 
---------------- Step  1200000 ----- CPU =    762.7940 (sec) ----------------
Time     = 6000000.000000 Temp     = 234.990973 Press    = 742.911683 
PotEng   = -8.680069 KinEng   = 0.699095 Lx       = 24.486702 
Ly       = 24.486702 Lz       = 24.486702 Density  = 1.043205 
Volume   = 14682.192315 
---------------- Step  1210000 ----- CPU =    769.1816 (sec) ----------------
Time     = 6050000.000000 Temp     = 242.514645 Press    = 2374.667897 
PotEng   = -8.730777 KinEng   = 0.721478 Lx       = 24.584250 
Ly       = 24.584250 Lz       = 24.584250 Density  = 1.030836 
Volume   = 14858.360424 
---------------- Step  1220000 ----- CPU =    775.6166 (sec) ----------------
Time     = 6100000.000000 Temp     = 250.902869 Press    = 1585.669674 
PotEng   = -8.741765 KinEng   = 0.746433 Lx       = 24.419412 
Ly       = 24.419412 Lz       = 24.419412 Density  = 1.051853 
Volume   = 14561.482172 
---------------- Step  1230000 ----- CPU =    781.7861 (sec) ----------------
Time     = 6150000.000000 Temp     = 241.647624 Press    = 712.426077 
PotEng   = -8.682831 KinEng   = 0.718899 Lx       = 24.430504 
Ly       = 24.430504 Lz       = 24.430504 Density  = 1.050421 
Volume   = 14581.334568 
---------------- Step  1240000 ----- CPU =    788.1698 (sec) ----------------
Time     = 6200000.000000 Temp     = 242.611552 Press    = -208.425107 
PotEng   = -8.666088 KinEng   = 0.721766 Lx       = 24.451696 
Ly       = 24.451696 Lz       = 24.451696 Density  = 1.047692 
Volume   = 14619.313050 
---------------- Step  1250000 ----- CPU =    794.6912 (sec) ----------------
Time     = 6250000.000000 Temp     = 241.760983 Press    = 631.715609 
PotEng   = -8.685100 KinEng   = 0.719236 Lx       = 24.393191 
Ly       = 24.393191 Lz       = 24.393191 Density  = 1.055248 
Volume   = 14514.625134 
---------------- Step  1260000 ----- CPU =    801.2131 (sec) ----------------
Time     = 6300000.000000 Temp     = 247.869190 Press    = 1569.749919 
PotEng   = -8.781772 KinEng   = 0.737408 Lx       = 24.434419 
Ly       = 24.434419 Lz       = 24.434419 Density  = 1.049916 
Volume   = 14588.345090 
---------------- Step  1270000 ----- CPU =    807.5699 (sec) ----------------
Time     = 6350000.000000 Temp     = 245.396270 Press    = 494.363723 
PotEng   = -8.719601 KinEng   = 0.730051 Lx       = 24.431295 
Ly       = 24.431295 Lz       = 24.431295 Density  = 1.050319 
Volume   = 14582.750542 
---------------- Step  1280000 ----- CPU =    813.8009 (sec) ----------------
Time     = 6400000.000000 Temp     = 252.696754 Press    = 907.307721 
PotEng   = -8.792171 KinEng   = 0.751770 Lx       = 24.459888 
Ly       = 24.459888 Lz       = 24.459888 Density  = 1.046640 
Volume   = 14634.011685 
---------------- Step  1290000 ----- CPU =    820.1814 (sec) ----------------
Time     = 6450000.000000 Temp     = 260.793313 Press    = 1484.975558 
PotEng   = -8.755383 KinEng   = 0.775857 Lx       = 24.403686 
Ly       = 24.403686 Lz       = 24.403686 Density  = 1.053887 
Volume   = 14533.368325 
---------------- Step  1300000 ----- CPU =    826.5478 (sec) ----------------
Time     = 6500000.000000 Temp     = 243.503110 Press    = 816.277754 
PotEng   = -8.743513 KinEng   = 0.724419 Lx       = 24.389789 
Ly       = 24.389789 Lz       = 24.389789 Density  = 1.055690 
Volume   = 14508.553864 
---------------- Step  1310000 ----- CPU =    833.0424 (sec) ----------------
Time     = 6550000.000000 Temp     = 256.284293 Press    = 476.837978 
PotEng   = -8.753883 KinEng   = 0.762443 Lx       = 24.560273 
Ly       = 24.560273 Lz       = 24.560273 Density  = 1.033858 
Volume   = 14814.928953 
---------------- Step  1320000 ----- CPU =    839.3975 (sec) ----------------
Time     = 6600000.000000 Temp     = 257.969213 Press    = 971.624099 
PotEng   = -8.780403 KinEng   = 0.767455 Lx       = 24.603691 
Ly       = 24.603691 Lz       = 24.603691 Density  = 1.028394 
Volume   = 14893.638704 
---------------- Step  1330000 ----- CPU =    845.6994 (sec) ----------------
Time     = 6650000.000000 Temp     = 261.922521 Press    = 618.140586 
PotEng   = -8.651772 KinEng   = 0.779216 Lx       = 24.483999 
Ly       = 24.483999 Lz       = 24.483999 Density  = 1.043550 
Volume   = 14677.330766 
---------------- Step  1340000 ----- CPU =    852.0267 (sec) ----------------
Time     = 6700000.000000 Temp     = 240.134319 Press    = 1291.915779 
PotEng   = -8.749324 KinEng   = 0.714397 Lx       = 24.445425 
Ly       = 24.445425 Lz       = 24.445425 Density  = 1.048498 
Volume   = 14608.067219 
---------------- Step  1350000 ----- CPU =    858.4696 (sec) ----------------
Time     = 6750000.000000 Temp     = 262.345339 Press    = -0.992150 
PotEng   = -8.697497 KinEng   = 0.780474 Lx       = 24.392831 
Ly       = 24.392831 Lz       = 24.392831 Density  = 1.055295 
Volume   = 14513.983346 
---------------- Step  1360000 ----- CPU =    864.7928 (sec) ----------------
Time     = 6800000.000000 Temp     = 247.466444 Press    = 1434.682834 
PotEng   = -8.746087 KinEng   = 0.736210 Lx       = 24.435072 
Ly       = 24.435072 Lz       = 24.435072 Density  = 1.049832 
Volume   = 14589.515418 
---------------- Step  1370000 ----- CPU =    871.0416 (sec) ----------------
Time     = 6850000.000000 Temp     = 242.845873 Press    = 1436.510952 
PotEng   = -8.683196 KinEng   = 0.722464 Lx       = 24.454779 
Ly       = 24.454779 Lz       = 24.454779 Density  = 1.047296 
Volume   = 14624.843185 
---------------- Step  1380000 ----- CPU =    877.3893 (sec) ----------------
Time     = 6900000.000000 Temp     = 248.370639 Press    = -77.378190 
PotEng   = -8.736781 KinEng   = 0.738900 Lx       = 24.453027 
Ly       = 24.453027 Lz       = 24.453027 Density  = 1.047521 
Volume   = 14621.700971 
---------------- Step  1390000 ----- CPU =    883.7617 (sec) ----------------
Time     = 6950000.000000 Temp     = 248.875684 Press    = 1341.792777 
PotEng   = -8.747927 KinEng   = 0.740402 Lx       = 24.281649 
Ly       = 24.281649 Lz       = 24.281649 Density  = 1.069858 
Volume   = 14316.423865 
---------------- Step  1400000 ----- CPU =    890.1943 (sec) ----------------
Time     = 7000000.000000 Temp     = 253.702971 Press    = 858.555173 
PotEng   = -8.706747 KinEng   = 0.754763 Lx       = 24.554625 
Ly       = 24.554625 Lz       = 24.554625 Density  = 1.034572 
Volume   = 14804.711231 
---------------- Step  1410000 ----- CPU =    896.4744 (sec) ----------------
Time     = 7050000.000000 Temp     = 257.669264 Press    = 2229.271903 
PotEng   = -8.718689 KinEng   = 0.766563 Lx       = 24.310625 
Ly       = 24.310625 Lz       = 24.310625 Density  = 1.066037 
Volume   = 14367.736657 
---------------- Step  1420000 ----- CPU =    902.9170 (sec) ----------------
Time     = 7100000.000000 Temp     = 246.282633 Press    = -22.852859 
PotEng   = -8.730020 KinEng   = 0.732688 Lx       = 24.371774 
Ly       = 24.371774 Lz       = 24.371774 Density  = 1.058033 
Volume   = 14476.429090 
---------------- Step  1430000 ----- CPU =    909.4053 (sec) ----------------
Time     = 7150000.000000 Temp     = 259.034517 Press    = 560.300627 
PotEng   = -8.750965 KinEng   = 0.770625 Lx       = 24.420669 
Ly       = 24.420669 Lz       = 24.420669 Density  = 1.051690 
Volume   = 14563.731655 
---------------- Step  1440000 ----- CPU =    915.8779 (sec) ----------------
Time     = 7200000.000000 Temp     = 261.110062 Press    = -119.479532 
PotEng   = -8.660780 KinEng   = 0.776799 Lx       = 24.533055 
Ly       = 24.533055 Lz       = 24.533055 Density  = 1.037303 
Volume   = 14765.728248 
---------------- Step  1450000 ----- CPU =    922.1029 (sec) ----------------
Time     = 7250000.000000 Temp     = 243.773349 Press    = 1982.504817 
PotEng   = -8.740213 KinEng   = 0.725223 Lx       = 24.398309 
Ly       = 24.398309 Lz       = 24.398309 Density  = 1.054584 
Volume   = 14523.764630 
---------------- Step  1460000 ----- CPU =    928.5890 (sec) ----------------
Time     = 7300000.000000 Temp     = 255.664913 Press    = 1229.540295 
PotEng   = -8.722598 KinEng   = 0.760600 Lx       = 24.413058 
Ly       = 24.413058 Lz       = 24.413058 Density  = 1.052674 
Volume   = 14550.119298 
---------------- Step  1470000 ----- CPU =    934.8508 (sec) ----------------
Time     = 7350000.000000 Temp     = 256.391485 Press    = 1430.183543 
PotEng   = -8.665699 KinEng   = 0.762762 Lx       = 24.419725 
Ly       = 24.419725 Lz       = 24.419725 Density  = 1.051812 
Volume   = 14562.043615 
---------------- Step  1480000 ----- CPU =    940.9366 (sec) ----------------
Time     = 7400000.000000 Temp     = 247.144646 Press    = 1083.311913 
PotEng   = -8.813002 KinEng   = 0.735252 Lx       = 24.444908 
Ly       = 24.444908 Lz       = 24.444908 Density  = 1.048565 
Volume   = 14607.141115 
---------------- Step  1490000 ----- CPU =    947.3410 (sec) ----------------
Time     = 7450000.000000 Temp     = 235.585071 Press    = 1060.480180 
PotEng   = -8.725662 KinEng   = 0.700863 Lx       = 24.478346 
Ly       = 24.478346 Lz       = 24.478346 Density  = 1.044274 
Volume   = 14667.165292 
---------------- Step  1500000 ----- CPU =    953.7324 (sec) ----------------
Time     = 7500000.000000 Temp     = 248.871243 Press    = 506.150881 
PotEng   = -8.786688 KinEng   = 0.740389 Lx       = 24.559854 
Ly       = 24.559854 Lz       = 24.559854 Density  = 1.033911 
Volume   = 14814.170315 
---------------- Step  1510000 ----- CPU =    960.1508 (sec) ----------------
Time     = 7550000.000000 Temp     = 262.531562 Press    = 1119.308453 
PotEng   = -8.676071 KinEng   = 0.781028 Lx       = 24.485612 
Ly       = 24.485612 Lz       = 24.485612 Density  = 1.043344 
Volume   = 14680.231619 
---------------- Step  1520000 ----- CPU =    966.6584 (sec) ----------------
Time     = 7600000.000000 Temp     = 241.358202 Press    = 1832.417623 
PotEng   = -8.768629 KinEng   = 0.718038 Lx       = 24.265273 
Ly       = 24.265273 Lz       = 24.265273 Density  = 1.072025 
Volume   = 14287.476344 
---------------- Step  1530000 ----- CPU =    972.9960 (sec) ----------------
Time     = 7650000.000000 Temp     = 247.294283 Press    = 1115.853803 
PotEng   = -8.760460 KinEng   = 0.735698 Lx       = 24.394249 
Ly       = 24.394249 Lz       = 24.394249 Density  = 1.055111 
Volume   = 14516.515396 
---------------- Step  1540000 ----- CPU =    979.2242 (sec) ----------------
Time     = 7700000.000000 Temp     = 241.818868 Press    = 833.701346 
PotEng   = -8.754294 KinEng   = 0.719408 Lx       = 24.403839 
Ly       = 24.403839 Lz       = 24.403839 Density  = 1.053868 
Volume   = 14533.642439 
---------------- Step  1550000 ----- CPU =    985.5907 (sec) ----------------
Time     = 7750000.000000 Temp     = 249.149439 Press    = 1043.033994 
PotEng   = -8.701140 KinEng   = 0.741217 Lx       = 24.464212 
Ly       = 24.464212 Lz       = 24.464212 Density  = 1.046085 
Volume   = 14641.773744 
---------------- Step  1560000 ----- CPU =    991.7819 (sec) ----------------
Time     = 7800000.000000 Temp     = 262.670315 Press    = 1132.760590 
PotEng   = -8.691686 KinEng   = 0.781441 Lx       = 24.577486 
Ly       = 24.577486 Lz       = 24.577486 Density  = 1.031687 
Volume   = 14846.098957 
---------------- Step  1570000 ----- CPU =    998.0021 (sec) ----------------
Time     = 7850000.000000 Temp     = 241.534786 Press    = 1384.552962 
PotEng   = -8.732814 KinEng   = 0.718563 Lx       = 24.385918 
Ly       = 24.385918 Lz       = 24.385918 Density  = 1.056193 
Volume   = 14501.647461 
---------------- Step  1580000 ----- CPU =   1004.3950 (sec) ----------------
Time     = 7900000.000000 Temp     = 245.218162 Press    = 131.982267 
PotEng   = -8.763564 KinEng   = 0.729521 Lx       = 24.463824 
Ly       = 24.463824 Lz       = 24.463824 Density  = 1.046134 
Volume   = 14641.077598 
---------------- Step  1590000 ----- CPU =   1010.6828 (sec) ----------------
Time     = 7950000.000000 Temp     = 243.182751 Press    = 220.407778 
PotEng   = -8.771992 KinEng   = 0.723466 Lx       = 24.428021 
Ly       = 24.428021 Lz       = 24.428021 Density  = 1.050741 
Volume   = 14576.889473 
---------------- Step  1600000 ----- CPU =   1016.8871 (sec) ----------------
Time     = 8000000.000000 Temp     = 268.746875 Press    = 1339.312976 
PotEng   = -8.707846 KinEng   = 0.799519 Lx       = 24.478166 
Ly       = 24.478166 Lz       = 24.478166 Density  = 1.044297 
Volume   = 14666.842648 
---------------- Step  1610000 ----- CPU =   1023.3724 (sec) ----------------
Time     = 8050000.000000 Temp     = 259.554071 Press    = 265.195264 
PotEng   = -8.698816 KinEng   = 0.772170 Lx       = 24.541492 
Ly       = 24.541492 Lz       = 24.541492 Density  = 1.036234 
Volume   = 14780.967478 
---------------- Step  1620000 ----- CPU =   1029.8039 (sec) ----------------
Time     = 8100000.000000 Temp     = 248.188270 Press    = 1329.337677 
PotEng   = -8.750960 KinEng   = 0.738357 Lx       = 24.447996 
Ly       = 24.447996 Lz       = 24.447996 Density  = 1.048168 
Volume   = 14612.677376 
---------------- Step  1630000 ----- CPU =   1036.1772 (sec) ----------------
Time     = 8150000.000000 Temp     = 246.216260 Press    = 829.133862 
PotEng   = -8.711853 KinEng   = 0.732490 Lx       = 24.470261 
Ly       = 24.470261 Lz       = 24.470261 Density  = 1.045309 
Volume   = 14652.638354 
---------------- Step  1640000 ----- CPU =   1042.5921 (sec) ----------------
Time     = 8200000.000000 Temp     = 260.387431 Press    = 767.198638 
PotEng   = -8.786438 KinEng   = 0.774650 Lx       = 24.506970 
Ly       = 24.506970 Lz       = 24.506970 Density  = 1.040619 
Volume   = 14718.679928 
---------------- Step  1650000 ----- CPU =   1048.8435 (sec) ----------------
Time     = 8250000.000000 Temp     = 245.418104 Press    = 126.568733 
PotEng   = -8.727309 KinEng   = 0.730116 Lx       = 24.669218 
Ly       = 24.669218 Lz       = 24.669218 Density  = 1.020221 
Volume   = 15012.954531 
---------------- Step  1660000 ----- CPU =   1055.0721 (sec) ----------------
Time     = 8300000.000000 Temp     = 253.197413 Press    = 483.265257 
PotEng   = -8.768410 KinEng   = 0.753259 Lx       = 24.548166 
Ly       = 24.548166 Lz       = 24.548166 Density  = 1.035389 
Volume   = 14793.030643 
---------------- Step  1670000 ----- CPU =   1061.4655 (sec) ----------------
Time     = 8350000.000000 Temp     = 243.596113 Press    = 334.641574 
PotEng   = -8.677892 KinEng   = 0.724696 Lx       = 24.445327 
Ly       = 24.445327 Lz       = 24.445327 Density  = 1.048511 
Volume   = 14607.891693 
---------------- Step  1680000 ----- CPU =   1067.5539 (sec) ----------------
Time     = 8400000.000000 Temp     = 236.616976 Press    = -278.210359 
PotEng   = -8.647122 KinEng   = 0.703933 Lx       = 24.592889 
Ly       = 24.592889 Lz       = 24.592889 Density  = 1.029750 
Volume   = 14874.029778 
---------------- Step  1690000 ----- CPU =   1073.9290 (sec) ----------------
Time     = 8450000.000000 Temp     = 254.891381 Press    = 537.732160 
PotEng   = -8.729316 KinEng   = 0.758299 Lx       = 24.475756 
Ly       = 24.475756 Lz       = 24.475756 Density  = 1.044605 
Volume   = 14662.510210 
---------------- Step  1700000 ----- CPU =   1080.1580 (sec) ----------------
Time     = 8500000.000000 Temp     = 256.836370 Press    = 1481.920754 
PotEng   = -8.719699 KinEng   = 0.764085 Lx       = 24.394299 
Ly       = 24.394299 Lz       = 24.394299 Density  = 1.055105 
Volume   = 14516.603357 
---------------- Step  1710000 ----- CPU =   1086.6237 (sec) ----------------
Time     = 8550000.000000 Temp     = 261.164598 Press    = 1549.720890 
PotEng   = -8.798800 KinEng   = 0.776962 Lx       = 24.396749 
Ly       = 24.396749 Lz       = 24.396749 Density  = 1.054787 
Volume   = 14520.977781 
---------------- Step  1720000 ----- CPU =   1093.0025 (sec) ----------------
Time     = 8600000.000000 Temp     = 268.023406 Press    = 1302.311400 
PotEng   = -8.645714 KinEng   = 0.797366 Lx       = 24.427925 
Ly       = 24.427925 Lz       = 24.427925 Density  = 1.050753 
Volume   = 14576.716575 
---------------- Step  1730000 ----- CPU =   1099.3303 (sec) ----------------
Time     = 8650000.000000 Temp     = 260.949969 Press    = 1077.933181 
PotEng   = -8.693286 KinEng   = 0.776323 Lx       = 24.322563 
Ly       = 24.322563 Lz       = 24.322563 Density  = 1.064468 
Volume   = 14388.913463 
---------------- Step  1740000 ----- CPU =   1105.5849 (sec) ----------------
Time     = 8700000.000000 Temp     = 247.372017 Press    = 1119.927356 
PotEng   = -8.738048 KinEng   = 0.735929 Lx       = 24.540622 
Ly       = 24.540622 Lz       = 24.540622 Density  = 1.036344 
Volume   = 14779.395525 
---------------- Step  1750000 ----- CPU =   1111.9287 (sec) ----------------
Time     = 8750000.000000 Temp     = 252.219900 Press    = 1052.860039 
PotEng   = -8.747016 KinEng   = 0.750351 Lx       = 24.561375 
Ly       = 24.561375 Lz       = 24.561375 Density  = 1.033719 
Volume   = 14816.922244 
---------------- Step  1760000 ----- CPU =   1118.3051 (sec) ----------------
Time     = 8800000.000000 Temp     = 260.960930 Press    = 2400.022696 
PotEng   = -8.765032 KinEng   = 0.776356 Lx       = 24.309609 
Ly       = 24.309609 Lz       = 24.309609 Density  = 1.066170 
Volume   = 14365.936567 
---------------- Step  1770000 ----- CPU =   1124.7714 (sec) ----------------
Time     = 8850000.000000 Temp     = 248.520253 Press    = 880.721944 
PotEng   = -8.734176 KinEng   = 0.739345 Lx       = 24.383287 
Ly       = 24.383287 Lz       = 24.383287 Density  = 1.056535 
Volume   = 14496.953481 
---------------- Step  1780000 ----- CPU =   1131.0869 (sec) ----------------
Time     = 8900000.000000 Temp     = 244.135728 Press    = 1227.086646 
PotEng   = -8.775538 KinEng   = 0.726301 Lx       = 24.541777 
Ly       = 24.541777 Lz       = 24.541777 Density  = 1.036197 
Volume   = 14781.483059 
---------------- Step  1790000 ----- CPU =   1137.4531 (sec) ----------------
Time     = 8950000.000000 Temp     = 257.294762 Press    = 143.261543 
PotEng   = -8.682574 KinEng   = 0.765449 Lx       = 24.493299 
Ly       = 24.493299 Lz       = 24.493299 Density  = 1.042362 
Volume   = 14694.061380 
---------------- Step  1800000 ----- CPU =   1143.7768 (sec) ----------------
Time     = 9000000.000000 Temp     = 251.826674 Press    = 1621.053271 
PotEng   = -8.725525 KinEng   = 0.749181 Lx       = 24.556593 
Ly       = 24.556593 Lz       = 24.556593 Density  = 1.034323 
Volume   = 14808.270959 
---------------- Step  1810000 ----- CPU =   1150.1380 (sec) ----------------
Time     = 9050000.000000 Temp     = 256.291032 Press    = 1219.633324 
PotEng   = -8.715805 KinEng   = 0.762463 Lx       = 24.604771 
Ly       = 24.604771 Lz       = 24.604771 Density  = 1.028259 
Volume   = 14895.599223 
---------------- Step  1820000 ----- CPU =   1156.5368 (sec) ----------------
Time     = 9100000.000000 Temp     = 260.559211 Press    = 494.277123 
PotEng   = -8.668819 KinEng   = 0.775161 Lx       = 24.507741 
Ly       = 24.507741 Lz       = 24.507741 Density  = 1.040521 
Volume   = 14720.068968 
---------------- Step  1830000 ----- CPU =   1162.8144 (sec) ----------------
Time     = 9150000.000000 Temp     = 255.499614 Press    = 1075.699444 
PotEng   = -8.678418 KinEng   = 0.760108 Lx       = 24.443876 
Ly       = 24.443876 Lz       = 24.443876 Density  = 1.048698 
Volume   = 14605.290669 
---------------- Step  1840000 ----- CPU =   1169.1681 (sec) ----------------
Time     = 9200000.000000 Temp     = 258.412020 Press    = 746.594623 
PotEng   = -8.716987 KinEng   = 0.768773 Lx       = 24.450710 
Ly       = 24.450710 Lz       = 24.450710 Density  = 1.047819 
Volume   = 14617.544342 
---------------- Step  1850000 ----- CPU =   1175.6562 (sec) ----------------
Time     = 9250000.000000 Temp     = 249.062488 Press    = 1316.987878 
PotEng   = -8.695427 KinEng   = 0.740958 Lx       = 24.365759 
Ly       = 24.365759 Lz       = 24.365759 Density  = 1.058817 
Volume   = 14465.711956 
---------------- Step  1860000 ----- CPU =   1181.9648 (sec) ----------------
Time     = 9300000.000000 Temp     = 247.075954 Press    = 1953.924840 
PotEng   = -8.742357 KinEng   = 0.735048 Lx       = 24.504572 
Ly       = 24.504572 Lz       = 24.504572 Density  = 1.040924 
Volume   = 14714.359465 
---------------- Step  1870000 ----- CPU =   1188.3469 (sec) ----------------
Time     = 9350000.000000 Temp     = 254.422620 Press    = 1581.460886 
PotEng   = -8.664237 KinEng   = 0.756904 Lx       = 24.288939 
Ly       = 24.288939 Lz       = 24.288939 Density  = 1.068895 
Volume   = 14329.321477 
---------------- Step  1880000 ----- CPU =   1194.7312 (sec) ----------------
Time     = 9400000.000000 Temp     = 249.099010 Press    = 649.167515 
PotEng   = -8.720828 KinEng   = 0.741067 Lx       = 24.462853 
Ly       = 24.462853 Lz       = 24.462853 Density  = 1.046259 
Volume   = 14639.334137 
---------------- Step  1890000 ----- CPU =   1201.0625 (sec) ----------------
Time     = 9450000.000000 Temp     = 256.926290 Press    = 1718.774507 
PotEng   = -8.770091 KinEng   = 0.764353 Lx       = 24.414873 
Ly       = 24.414873 Lz       = 24.414873 Density  = 1.052439 
Volume   = 14553.364826 
---------------- Step  1900000 ----- CPU =   1207.3931 (sec) ----------------
Time     = 9500000.000000 Temp     = 251.793796 Press    = 1286.383474 
PotEng   = -8.706772 KinEng   = 0.749084 Lx       = 24.356530 
Ly       = 24.356530 Lz       = 24.356530 Density  = 1.060021 
Volume   = 14449.281204 
---------------- Step  1910000 ----- CPU =   1213.7880 (sec) ----------------
Time     = 9550000.000000 Temp     = 245.710434 Press    = 1019.998772 
PotEng   = -8.656305 KinEng   = 0.730986 Lx       = 24.342990 
Ly       = 24.342990 Lz       = 24.342990 Density  = 1.061790 
Volume   = 14425.197875 
---------------- Step  1920000 ----- CPU =   1220.1554 (sec) ----------------
Time     = 9600000.000000 Temp     = 241.664815 Press    = 373.118979 
PotEng   = -8.709315 KinEng   = 0.718950 Lx       = 24.499079 
Ly       = 24.499079 Lz       = 24.499079 Density  = 1.041625 
Volume   = 14704.466716 
---------------- Step  1930000 ----- CPU =   1226.3837 (sec) ----------------
Time     = 9650000.000000 Temp     = 232.050556 Press    = 68.566996 
PotEng   = -8.790141 KinEng   = 0.690348 Lx       = 24.532977 
Ly       = 24.532977 Lz       = 24.532977 Density  = 1.037313 
Volume   = 14765.589147 
---------------- Step  1940000 ----- CPU =   1232.6387 (sec) ----------------
Time     = 9700000.000000 Temp     = 254.037559 Press    = 437.889213 
PotEng   = -8.747204 KinEng   = 0.755759 Lx       = 24.492821 
Ly       = 24.492821 Lz       = 24.492821 Density  = 1.042423 
Volume   = 14693.200548 
---------------- Step  1950000 ----- CPU =   1238.9879 (sec) ----------------
Time     = 9750000.000000 Temp     = 232.655519 Press    = 797.689336 
PotEng   = -8.785534 KinEng   = 0.692147 Lx       = 24.395761 
Ly       = 24.395761 Lz       = 24.395761 Density  = 1.054915 
Volume   = 14519.214361 
---------------- Step  1960000 ----- CPU =   1245.3730 (sec) ----------------
Time     = 9800000.000000 Temp     = 241.701656 Press    = 968.240619 
PotEng   = -8.783044 KinEng   = 0.719060 Lx       = 24.504083 
Ly       = 24.504083 Lz       = 24.504083 Density  = 1.040987 
Volume   = 14713.478408 
---------------- Step  1970000 ----- CPU =   1251.7595 (sec) ----------------
Time     = 9850000.000000 Temp     = 244.777404 Press    = 166.178187 
PotEng   = -8.704600 KinEng   = 0.728210 Lx       = 24.603827 
Ly       = 24.603827 Lz       = 24.603827 Density  = 1.028377 
Volume   = 14893.885209 
---------------- Step  1980000 ----- CPU =   1258.1052 (sec) ----------------
Time     = 9900000.000000 Temp     = 252.047884 Press    = -308.240007 
PotEng   = -8.694856 KinEng   = 0.749839 Lx       = 24.472104 
Ly       = 24.472104 Lz       = 24.472104 Density  = 1.045073 
Volume   = 14655.949138 
---------------- Step  1990000 ----- CPU =   1264.5514 (sec) ----------------
Time     = 9950000.000000 Temp     = 241.961308 Press    = 1163.448689 
PotEng   = -8.739112 KinEng   = 0.719832 Lx       = 24.537518 
Ly       = 24.537518 Lz       = 24.537518 Density  = 1.036737 
Volume   = 14773.788219 
---------------- Step  2000000 ----- CPU =   1270.8478 (sec) ----------------
Time     = 10000000.000000 Temp     = 236.400249 Press    = 459.558996 
PotEng   = -8.695450 KinEng   = 0.703288 Lx       = 24.505272 
Ly       = 24.505272 Lz       = 24.505272 Density  = 1.040835 
Volume   = 14715.620419 
Loop time of 1270.84 on 6 procs for 2000000 steps with 512 atoms

Performance: 679.863 ns/day, 0.035 hours/ns, 1573.758 timesteps/s
100.0% CPU use with 6 MPI tasks x no OpenMP threads

MPI task timing breakdown:
Section |  min time  |  avg time  |  max time  |%varavg| %total
---------------------------------------------------------------
Pair    | 1062.9     | 1068.9     | 1074.8     |  11.0 | 84.11
Neigh   | 18.22      | 18.254     | 18.274     |   0.4 |  1.44
Comm    | 154.6      | 160.59     | 166.52     |  28.4 | 12.64
Output  | 0.005695   | 0.013724   | 0.053821   |  15.3 |  0.00
Modify  | 18.872     | 19.025     | 19.237     |   3.1 |  1.50
Other   |            | 4.073      |            |       |  0.32

Nlocal:    85.3333 ave 89 max 82 min
Histogram: 1 1 0 0 2 0 0 0 1 1
Nghost:    480.333 ave 488 max 469 min
Histogram: 1 0 0 1 0 0 1 1 1 1
Neighs:    0 ave 0 max 0 min
Histogram: 6 0 0 0 0 0 0 0 0 0
FullNghs:  2082.33 ave 2178 max 1969 min
Histogram: 1 1 0 0 0 1 0 1 1 1

Total # of neighbors = 12494
Ave neighs/atom = 24.4023
Neighbor list builds = 104523
Dangerous builds = 0
#reset_timestep 0
#unfix 1  # Remove the fix (important!)

# ---- Custom dump ----
# Easier to analyze than LAMMP's log file

variable        engtot equal etotal
variable        utotal equal pe
variable        cellx equal lx
variable        kintemp equal temp
variable        virpress equal press
variable        massdensity equal density
variable 		volume equal vol

fix             thermodata all print 200 "${volume} ${massdensity}" file "Ref.density" screen no


# DCD trajectory (every 0.5 ps)
#dump            1 all dcd 5000 traj.dcd

# ----- Temperature/Pressure Controls -----
fix 1 all npt temp ${T} ${T} 100 iso ${P} ${P} 1000
fix 1 all npt temp 250 ${T} 100 iso ${P} ${P} 1000
fix 1 all npt temp 250 250 100 iso ${P} ${P} 1000
fix 1 all npt temp 250 250 100 iso 986.923 ${P} 1000
fix 1 all npt temp 250 250 100 iso 986.923 986.923 1000

run 2000000  # production 10 ns
Per MPI rank memory allocation (min/avg/max) = 2.941 | 2.941 | 2.942 Mbytes
---------------- Step  2000000 ----- CPU =      0.0000 (sec) ----------------
Time     = 10000000.000000 Temp     = 236.400249 Press    = 459.558996 
PotEng   = -8.695450 KinEng   = 0.703288 Lx       = 24.505272 
Ly       = 24.505272 Lz       = 24.505272 Density  = 1.040835 
Volume   = 14715.620419 
---------------- Step  2010000 ----- CPU =      6.4421 (sec) ----------------
Time     = 10050000.000000 Temp     = 241.041288 Press    = 1804.018099 
PotEng   = -8.756948 KinEng   = 0.717095 Lx       = 24.532911 
Ly       = 24.532911 Lz       = 24.532911 Density  = 1.037321 
Volume   = 14765.469961 
---------------- Step  2020000 ----- CPU =     12.9086 (sec) ----------------
Time     = 10100000.000000 Temp     = 238.806572 Press    = 76.550706 
PotEng   = -8.720678 KinEng   = 0.710447 Lx       = 24.300699 
Ly       = 24.300699 Lz       = 24.300699 Density  = 1.067344 
Volume   = 14350.144690 
---------------- Step  2030000 ----- CPU =     19.3255 (sec) ----------------
Time     = 10150000.000000 Temp     = 254.157055 Press    = -247.313275 
PotEng   = -8.713859 KinEng   = 0.756114 Lx       = 24.447809 
Ly       = 24.447809 Lz       = 24.447809 Density  = 1.048192 
Volume   = 14612.341782 
---------------- Step  2040000 ----- CPU =     25.5762 (sec) ----------------
Time     = 10200000.000000 Temp     = 236.807820 Press    = 408.324608 
PotEng   = -8.683942 KinEng   = 0.704500 Lx       = 24.432863 
Ly       = 24.432863 Lz       = 24.432863 Density  = 1.050116 
Volume   = 14585.558560 
---------------- Step  2050000 ----- CPU =     31.9846 (sec) ----------------
Time     = 10250000.000000 Temp     = 247.290927 Press    = 1640.771304 
PotEng   = -8.767936 KinEng   = 0.735688 Lx       = 24.504245 
Ly       = 24.504245 Lz       = 24.504245 Density  = 1.040966 
Volume   = 14713.770524 
---------------- Step  2060000 ----- CPU =     38.2102 (sec) ----------------
Time     = 10300000.000000 Temp     = 243.627077 Press    = 1343.007887 
PotEng   = -8.683904 KinEng   = 0.724788 Lx       = 24.502260 
Ly       = 24.502260 Lz       = 24.502260 Density  = 1.041219 
Volume   = 14710.195784 
---------------- Step  2070000 ----- CPU =     44.5279 (sec) ----------------
Time     = 10350000.000000 Temp     = 256.782027 Press    = -578.030344 
PotEng   = -8.674289 KinEng   = 0.763923 Lx       = 24.504524 
Ly       = 24.504524 Lz       = 24.504524 Density  = 1.040930 
Volume   = 14714.272289 
---------------- Step  2080000 ----- CPU =     50.8755 (sec) ----------------
Time     = 10400000.000000 Temp     = 261.943463 Press    = 372.037949 
PotEng   = -8.708266 KinEng   = 0.779279 Lx       = 24.477135 
Ly       = 24.477135 Lz       = 24.477135 Density  = 1.044429 
Volume   = 14664.988709 
---------------- Step  2090000 ----- CPU =     57.1722 (sec) ----------------
Time     = 10450000.000000 Temp     = 256.585905 Press    = 745.679549 
PotEng   = -8.838481 KinEng   = 0.763340 Lx       = 24.697489 
Ly       = 24.697489 Lz       = 24.697489 Density  = 1.016722 
Volume   = 15064.627406 
---------------- Step  2100000 ----- CPU =     63.4948 (sec) ----------------
Time     = 10500000.000000 Temp     = 251.530921 Press    = 16.313710 
PotEng   = -8.723788 KinEng   = 0.748302 Lx       = 24.639506 
Ly       = 24.639506 Lz       = 24.639506 Density  = 1.023916 
Volume   = 14958.774421 
---------------- Step  2110000 ----- CPU =     69.9298 (sec) ----------------
Time     = 10550000.000000 Temp     = 259.621737 Press    = 1885.173803 
PotEng   = -8.725937 KinEng   = 0.772372 Lx       = 24.411714 
Ly       = 24.411714 Lz       = 24.411714 Density  = 1.052848 
Volume   = 14547.717064 
---------------- Step  2120000 ----- CPU =     76.2896 (sec) ----------------
Time     = 10600000.000000 Temp     = 243.139511 Press    = 556.057091 
PotEng   = -8.705576 KinEng   = 0.723337 Lx       = 24.559408 
Ly       = 24.559408 Lz       = 24.559408 Density  = 1.033967 
Volume   = 14813.363319 
---------------- Step  2130000 ----- CPU =     82.6590 (sec) ----------------
Time     = 10650000.000000 Temp     = 250.591481 Press    = 807.327970 
PotEng   = -8.704533 KinEng   = 0.745507 Lx       = 24.349505 
Ly       = 24.349505 Lz       = 24.349505 Density  = 1.060938 
Volume   = 14436.781932 
---------------- Step  2140000 ----- CPU =     89.0337 (sec) ----------------
Time     = 10700000.000000 Temp     = 237.624805 Press    = 1145.162381 
PotEng   = -8.698037 KinEng   = 0.706931 Lx       = 24.359798 
Ly       = 24.359798 Lz       = 24.359798 Density  = 1.059594 
Volume   = 14455.097835 
---------------- Step  2150000 ----- CPU =     95.5310 (sec) ----------------
Time     = 10750000.000000 Temp     = 244.270615 Press    = 672.550297 
PotEng   = -8.749368 KinEng   = 0.726702 Lx       = 24.375910 
Ly       = 24.375910 Lz       = 24.375910 Density  = 1.057494 
Volume   = 14483.800056 
---------------- Step  2160000 ----- CPU =    102.0078 (sec) ----------------
Time     = 10800000.000000 Temp     = 240.236860 Press    = 1095.342653 
PotEng   = -8.802210 KinEng   = 0.714702 Lx       = 24.484421 
Ly       = 24.484421 Lz       = 24.484421 Density  = 1.043497 
Volume   = 14678.088698 
---------------- Step  2170000 ----- CPU =    108.3982 (sec) ----------------
Time     = 10850000.000000 Temp     = 238.909358 Press    = 766.705883 
PotEng   = -8.770561 KinEng   = 0.710753 Lx       = 24.605549 
Ly       = 24.605549 Lz       = 24.605549 Density  = 1.028161 
Volume   = 14897.012724 
---------------- Step  2180000 ----- CPU =    114.8843 (sec) ----------------
Time     = 10900000.000000 Temp     = 243.955746 Press    = 1299.261808 
PotEng   = -8.699340 KinEng   = 0.725765 Lx       = 24.360644 
Ly       = 24.360644 Lz       = 24.360644 Density  = 1.059484 
Volume   = 14456.604570 
---------------- Step  2190000 ----- CPU =    121.3213 (sec) ----------------
Time     = 10950000.000000 Temp     = 255.916660 Press    = 906.230872 
PotEng   = -8.730685 KinEng   = 0.761349 Lx       = 24.436316 
Ly       = 24.436316 Lz       = 24.436316 Density  = 1.049671 
Volume   = 14591.744113 
---------------- Step  2200000 ----- CPU =    127.6626 (sec) ----------------
Time     = 11000000.000000 Temp     = 253.261228 Press    = 1112.915183 
PotEng   = -8.773903 KinEng   = 0.753449 Lx       = 24.617625 
Ly       = 24.617625 Lz       = 24.617625 Density  = 1.026649 
Volume   = 14918.957320 
---------------- Step  2210000 ----- CPU =    133.7786 (sec) ----------------
Time     = 11050000.000000 Temp     = 251.838167 Press    = 755.272115 
PotEng   = -8.728406 KinEng   = 0.749216 Lx       = 24.654219 
Ly       = 24.654219 Lz       = 24.654219 Density  = 1.022084 
Volume   = 14985.587148 
---------------- Step  2220000 ----- CPU =    139.8785 (sec) ----------------
Time     = 11100000.000000 Temp     = 237.844222 Press    = 980.309338 
PotEng   = -8.777713 KinEng   = 0.707584 Lx       = 24.523736 
Ly       = 24.523736 Lz       = 24.523736 Density  = 1.038486 
Volume   = 14748.909564 
---------------- Step  2230000 ----- CPU =    146.1996 (sec) ----------------
Time     = 11150000.000000 Temp     = 253.764425 Press    = 1972.380917 
PotEng   = -8.657972 KinEng   = 0.754946 Lx       = 24.385969 
Ly       = 24.385969 Lz       = 24.385969 Density  = 1.056186 
Volume   = 14501.738344 
---------------- Step  2240000 ----- CPU =    152.6881 (sec) ----------------
Time     = 11200000.000000 Temp     = 259.732578 Press    = 1556.039676 
PotEng   = -8.704212 KinEng   = 0.772701 Lx       = 24.374407 
Ly       = 24.374407 Lz       = 24.374407 Density  = 1.057690 
Volume   = 14481.120475 
---------------- Step  2250000 ----- CPU =    159.0223 (sec) ----------------
Time     = 11250000.000000 Temp     = 251.963109 Press    = 1753.638211 
PotEng   = -8.710892 KinEng   = 0.749587 Lx       = 24.404341 
Ly       = 24.404341 Lz       = 24.404341 Density  = 1.053803 
Volume   = 14534.538550 
---------------- Step  2260000 ----- CPU =    165.3185 (sec) ----------------
Time     = 11300000.000000 Temp     = 252.664405 Press    = 1027.683187 
PotEng   = -8.787228 KinEng   = 0.751674 Lx       = 24.500248 
Ly       = 24.500248 Lz       = 24.500248 Density  = 1.041476 
Volume   = 14706.570762 
---------------- Step  2270000 ----- CPU =    171.7575 (sec) ----------------
Time     = 11350000.000000 Temp     = 254.722035 Press    = 28.181207 
PotEng   = -8.697137 KinEng   = 0.757795 Lx       = 24.522233 
Ly       = 24.522233 Lz       = 24.522233 Density  = 1.038677 
Volume   = 14746.196559 
---------------- Step  2280000 ----- CPU =    178.1861 (sec) ----------------
Time     = 11400000.000000 Temp     = 237.489916 Press    = 397.522545 
PotEng   = -8.761616 KinEng   = 0.706530 Lx       = 24.508420 
Ly       = 24.508420 Lz       = 24.508420 Density  = 1.040434 
Volume   = 14721.292954 
---------------- Step  2290000 ----- CPU =    184.4604 (sec) ----------------
Time     = 11450000.000000 Temp     = 229.545577 Press    = 1077.228171 
PotEng   = -8.815823 KinEng   = 0.682895 Lx       = 24.553392 
Ly       = 24.553392 Lz       = 24.553392 Density  = 1.034728 
Volume   = 14802.481039 
---------------- Step  2300000 ----- CPU =    190.7564 (sec) ----------------
Time     = 11500000.000000 Temp     = 245.875580 Press    = 1080.316417 
PotEng   = -8.781848 KinEng   = 0.731477 Lx       = 24.417541 
Ly       = 24.417541 Lz       = 24.417541 Density  = 1.052094 
Volume   = 14558.136548 
---------------- Step  2310000 ----- CPU =    197.1555 (sec) ----------------
Time     = 11550000.000000 Temp     = 257.644478 Press    = 1815.266360 
PotEng   = -8.723581 KinEng   = 0.766489 Lx       = 24.338346 
Ly       = 24.338346 Lz       = 24.338346 Density  = 1.062398 
Volume   = 14416.942376 
---------------- Step  2320000 ----- CPU =    203.5652 (sec) ----------------
Time     = 11600000.000000 Temp     = 263.758425 Press    = 1521.327987 
PotEng   = -8.699503 KinEng   = 0.784678 Lx       = 24.468649 
Ly       = 24.468649 Lz       = 24.468649 Density  = 1.045516 
Volume   = 14649.741736 
---------------- Step  2330000 ----- CPU =    209.9134 (sec) ----------------
Time     = 11650000.000000 Temp     = 245.845632 Press    = 1067.245671 
PotEng   = -8.740057 KinEng   = 0.731388 Lx       = 24.480450 
Ly       = 24.480450 Lz       = 24.480450 Density  = 1.044004 
Volume   = 14670.948189 
---------------- Step  2340000 ----- CPU =    216.3170 (sec) ----------------
Time     = 11700000.000000 Temp     = 256.059462 Press    = 1248.343658 
PotEng   = -8.693001 KinEng   = 0.761774 Lx       = 24.393594 
Ly       = 24.393594 Lz       = 24.393594 Density  = 1.055196 
Volume   = 14515.346147 
---------------- Step  2350000 ----- CPU =    222.5754 (sec) ----------------
Time     = 11750000.000000 Temp     = 237.633294 Press    = 395.741449 
PotEng   = -8.727844 KinEng   = 0.706956 Lx       = 24.467250 
Ly       = 24.467250 Lz       = 24.467250 Density  = 1.045695 
Volume   = 14647.229004 
---------------- Step  2360000 ----- CPU =    228.8333 (sec) ----------------
Time     = 11800000.000000 Temp     = 237.386425 Press    = -186.343389 
PotEng   = -8.722732 KinEng   = 0.706222 Lx       = 24.554294 
Ly       = 24.554294 Lz       = 24.554294 Density  = 1.034614 
Volume   = 14804.111684 
---------------- Step  2370000 ----- CPU =    235.3206 (sec) ----------------
Time     = 11850000.000000 Temp     = 248.037350 Press    = 737.173669 
PotEng   = -8.707558 KinEng   = 0.737908 Lx       = 24.380307 
Ly       = 24.380307 Lz       = 24.380307 Density  = 1.056922 
Volume   = 14491.638996 
---------------- Step  2380000 ----- CPU =    241.7687 (sec) ----------------
Time     = 11900000.000000 Temp     = 253.348237 Press    = 844.605393 
PotEng   = -8.718187 KinEng   = 0.753708 Lx       = 24.395331 
Ly       = 24.395331 Lz       = 24.395331 Density  = 1.054971 
Volume   = 14518.445611 
---------------- Step  2390000 ----- CPU =    248.3198 (sec) ----------------
Time     = 11950000.000000 Temp     = 261.597989 Press    = 1401.227651 
PotEng   = -8.743040 KinEng   = 0.778251 Lx       = 24.470104 
Ly       = 24.470104 Lz       = 24.470104 Density  = 1.045329 
Volume   = 14652.355633 
---------------- Step  2400000 ----- CPU =    254.6669 (sec) ----------------
Time     = 12000000.000000 Temp     = 244.308850 Press    = 1241.691870 
PotEng   = -8.745695 KinEng   = 0.726816 Lx       = 24.427437 
Ly       = 24.427437 Lz       = 24.427437 Density  = 1.050816 
Volume   = 14575.844622 
---------------- Step  2410000 ----- CPU =    260.8478 (sec) ----------------
Time     = 12050000.000000 Temp     = 244.008849 Press    = 495.980599 
PotEng   = -8.757926 KinEng   = 0.725923 Lx       = 24.556731 
Ly       = 24.556731 Lz       = 24.556731 Density  = 1.034306 
Volume   = 14808.520401 
---------------- Step  2420000 ----- CPU =    267.2895 (sec) ----------------
Time     = 12100000.000000 Temp     = 246.956414 Press    = 1987.480875 
PotEng   = -8.754767 KinEng   = 0.734692 Lx       = 24.521682 
Ly       = 24.521682 Lz       = 24.521682 Density  = 1.038747 
Volume   = 14745.203419 
---------------- Step  2430000 ----- CPU =    273.6393 (sec) ----------------
Time     = 12150000.000000 Temp     = 235.197081 Press    = 1129.917805 
PotEng   = -8.752868 KinEng   = 0.699709 Lx       = 24.381057 
Ly       = 24.381057 Lz       = 24.381057 Density  = 1.056825 
Volume   = 14492.976393 
---------------- Step  2440000 ----- CPU =    279.8824 (sec) ----------------
Time     = 12200000.000000 Temp     = 261.673785 Press    = 790.905346 
PotEng   = -8.752229 KinEng   = 0.778476 Lx       = 24.397120 
Ly       = 24.397120 Lz       = 24.397120 Density  = 1.054739 
Volume   = 14521.641442 
---------------- Step  2450000 ----- CPU =    286.1514 (sec) ----------------
Time     = 12250000.000000 Temp     = 258.403992 Press    = 1283.294230 
PotEng   = -8.786412 KinEng   = 0.768749 Lx       = 24.426371 
Ly       = 24.426371 Lz       = 24.426371 Density  = 1.050954 
Volume   = 14573.935424 
---------------- Step  2460000 ----- CPU =    292.6090 (sec) ----------------
Time     = 12300000.000000 Temp     = 259.958238 Press    = 1037.472505 
PotEng   = -8.711370 KinEng   = 0.773373 Lx       = 24.359548 
Ly       = 24.359548 Lz       = 24.359548 Density  = 1.059627 
Volume   = 14454.653797 
---------------- Step  2470000 ----- CPU =    298.9634 (sec) ----------------
Time     = 12350000.000000 Temp     = 257.866288 Press    = 779.685393 
PotEng   = -8.673190 KinEng   = 0.767149 Lx       = 24.454135 
Ly       = 24.454135 Lz       = 24.454135 Density  = 1.047378 
Volume   = 14623.687240 
---------------- Step  2480000 ----- CPU =    305.3805 (sec) ----------------
Time     = 12400000.000000 Temp     = 249.423364 Press    = 1635.105058 
PotEng   = -8.726987 KinEng   = 0.742032 Lx       = 24.397380 
Ly       = 24.397380 Lz       = 24.397380 Density  = 1.054705 
Volume   = 14522.104838 
---------------- Step  2490000 ----- CPU =    311.7921 (sec) ----------------
Time     = 12450000.000000 Temp     = 260.022883 Press    = 1097.159054 
PotEng   = -8.714737 KinEng   = 0.773565 Lx       = 24.262800 
Ly       = 24.262800 Lz       = 24.262800 Density  = 1.072353 
Volume   = 14283.108521 
---------------- Step  2500000 ----- CPU =    318.1786 (sec) ----------------
Time     = 12500000.000000 Temp     = 254.215361 Press    = 399.242135 
PotEng   = -8.705365 KinEng   = 0.756288 Lx       = 24.415788 
Ly       = 24.415788 Lz       = 24.415788 Density  = 1.052321 
Volume   = 14555.001268 
---------------- Step  2510000 ----- CPU =    324.5426 (sec) ----------------
Time     = 12550000.000000 Temp     = 248.068916 Press    = 432.736149 
PotEng   = -8.760572 KinEng   = 0.738002 Lx       = 24.499741 
Ly       = 24.499741 Lz       = 24.499741 Density  = 1.041540 
Volume   = 14705.659442 
---------------- Step  2520000 ----- CPU =    330.9334 (sec) ----------------
Time     = 12600000.000000 Temp     = 244.019832 Press    = 1597.228368 
PotEng   = -8.714901 KinEng   = 0.725956 Lx       = 24.476220 
[...]
PotEng   = -8.734906 KinEng   = 0.768281 Lx       = 24.455383 
Ly       = 24.455383 Lz       = 24.455383 Density  = 1.047218 
Volume   = 14625.926639 
---------------- Step  3390000 ----- CPU =    885.1140 (sec) ----------------
Time     = 16950000.000000 Temp     = 239.023102 Press    = 1006.782527 
PotEng   = -8.702476 KinEng   = 0.711091 Lx       = 24.441987 
Ly       = 24.441987 Lz       = 24.441987 Density  = 1.048941 
Volume   = 14601.905518 
---------------- Step  3400000 ----- CPU =    891.3711 (sec) ----------------
Time     = 17000000.000000 Temp     = 246.346775 Press    = 227.424203 
PotEng   = -8.724482 KinEng   = 0.732879 Lx       = 24.411788 
Ly       = 24.411788 Lz       = 24.411788 Density  = 1.052838 
Volume   = 14547.848641 
---------------- Step  3410000 ----- CPU =    897.7067 (sec) ----------------
Time     = 17050000.000000 Temp     = 241.297747 Press    = 1077.689463 
PotEng   = -8.711996 KinEng   = 0.717858 Lx       = 24.474596 
Ly       = 24.474596 Lz       = 24.474596 Density  = 1.044754 
Volume   = 14660.425486 
---------------- Step  3420000 ----- CPU =    904.2154 (sec) ----------------
Time     = 17100000.000000 Temp     = 256.838322 Press    = 1332.361941 
PotEng   = -8.707908 KinEng   = 0.764091 Lx       = 24.466331 
Ly       = 24.466331 Lz       = 24.466331 Density  = 1.045813 
Volume   = 14645.578213 
---------------- Step  3430000 ----- CPU =    910.4869 (sec) ----------------
Time     = 17150000.000000 Temp     = 266.856152 Press    = 677.848039 
PotEng   = -8.740531 KinEng   = 0.793894 Lx       = 24.528522 
Ly       = 24.528522 Lz       = 24.528522 Density  = 1.037878 
Volume   = 14757.545914 
---------------- Step  3440000 ----- CPU =    916.6407 (sec) ----------------
Time     = 17200000.000000 Temp     = 256.761554 Press    = -335.728833 
PotEng   = -8.732459 KinEng   = 0.763863 Lx       = 24.599322 
Ly       = 24.599322 Lz       = 24.599322 Density  = 1.028943 
Volume   = 14885.704376 
---------------- Step  3450000 ----- CPU =    922.9797 (sec) ----------------
Time     = 17250000.000000 Temp     = 254.541315 Press    = 1114.529964 
PotEng   = -8.712462 KinEng   = 0.757257 Lx       = 24.373040 
Ly       = 24.373040 Lz       = 24.373040 Density  = 1.057868 
Volume   = 14478.684651 
---------------- Step  3460000 ----- CPU =    929.4088 (sec) ----------------
Time     = 17300000.000000 Temp     = 246.871002 Press    = 1671.432591 
PotEng   = -8.692180 KinEng   = 0.734438 Lx       = 24.495649 
Ly       = 24.495649 Lz       = 24.495649 Density  = 1.042062 
Volume   = 14698.291422 
---------------- Step  3470000 ----- CPU =    935.7110 (sec) ----------------
Time     = 17350000.000000 Temp     = 251.959737 Press    = -134.765433 
PotEng   = -8.662611 KinEng   = 0.749577 Lx       = 24.545549 
Ly       = 24.545549 Lz       = 24.545549 Density  = 1.035720 
Volume   = 14788.299986 
---------------- Step  3480000 ----- CPU =    942.1615 (sec) ----------------
Time     = 17400000.000000 Temp     = 256.406216 Press    = 1288.186781 
PotEng   = -8.724256 KinEng   = 0.762805 Lx       = 24.524635 
Ly       = 24.524635 Lz       = 24.524635 Density  = 1.038372 
Volume   = 14750.531168 
---------------- Step  3490000 ----- CPU =    948.4714 (sec) ----------------
Time     = 17450000.000000 Temp     = 254.336720 Press    = 1292.364864 
PotEng   = -8.778510 KinEng   = 0.756649 Lx       = 24.279542 
Ly       = 24.279542 Lz       = 24.279542 Density  = 1.070136 
Volume   = 14312.696145 
---------------- Step  3500000 ----- CPU =    954.9436 (sec) ----------------
Time     = 17500000.000000 Temp     = 246.308958 Press    = 1709.842807 
PotEng   = -8.748680 KinEng   = 0.732766 Lx       = 24.480477 
Ly       = 24.480477 Lz       = 24.480477 Density  = 1.044001 
Volume   = 14670.996542 
---------------- Step  3510000 ----- CPU =    961.2834 (sec) ----------------
Time     = 17550000.000000 Temp     = 245.804050 Press    = 1259.205861 
PotEng   = -8.693757 KinEng   = 0.731264 Lx       = 24.462455 
Ly       = 24.462455 Lz       = 24.462455 Density  = 1.046310 
Volume   = 14638.619122 
---------------- Step  3520000 ----- CPU =    967.6090 (sec) ----------------
Time     = 17600000.000000 Temp     = 240.104274 Press    = 1256.690628 
PotEng   = -8.777039 KinEng   = 0.714307 Lx       = 24.558306 
Ly       = 24.558306 Lz       = 24.558306 Density  = 1.034107 
Volume   = 14811.369604 
---------------- Step  3530000 ----- CPU =    973.9255 (sec) ----------------
Time     = 17650000.000000 Temp     = 228.140705 Press    = 1383.362096 
PotEng   = -8.707653 KinEng   = 0.678716 Lx       = 24.255063 
Ly       = 24.255063 Lz       = 24.255063 Density  = 1.073379 
Volume   = 14269.449810 
---------------- Step  3540000 ----- CPU =    980.3116 (sec) ----------------
Time     = 17700000.000000 Temp     = 255.174522 Press    = 351.931531 
PotEng   = -8.725776 KinEng   = 0.759141 Lx       = 24.455256 
Ly       = 24.455256 Lz       = 24.455256 Density  = 1.047234 
Volume   = 14625.699241 
---------------- Step  3550000 ----- CPU =    986.7455 (sec) ----------------
Time     = 17750000.000000 Temp     = 264.447256 Press    = 929.775021 
PotEng   = -8.693275 KinEng   = 0.786727 Lx       = 24.649650 
Ly       = 24.649650 Lz       = 24.649650 Density  = 1.022653 
Volume   = 14977.256248 
---------------- Step  3560000 ----- CPU =    993.1938 (sec) ----------------
Time     = 17800000.000000 Temp     = 259.828470 Press    = 1361.224330 
PotEng   = -8.718960 KinEng   = 0.772987 Lx       = 24.297620 
Ly       = 24.297620 Lz       = 24.297620 Density  = 1.067749 
Volume   = 14344.691694 
---------------- Step  3570000 ----- CPU =    999.5630 (sec) ----------------
Time     = 17850000.000000 Temp     = 251.978621 Press    = 582.336828 
PotEng   = -8.687781 KinEng   = 0.749633 Lx       = 24.486656 
Ly       = 24.486656 Lz       = 24.486656 Density  = 1.043211 
Volume   = 14682.109340 
---------------- Step  3580000 ----- CPU =   1005.8271 (sec) ----------------
Time     = 17900000.000000 Temp     = 239.857914 Press    = 795.369729 
PotEng   = -8.757326 KinEng   = 0.713574 Lx       = 24.475236 
Ly       = 24.475236 Lz       = 24.475236 Density  = 1.044672 
Volume   = 14661.575645 
---------------- Step  3590000 ----- CPU =   1012.0806 (sec) ----------------
Time     = 17950000.000000 Temp     = 250.470703 Press    = 745.813095 
PotEng   = -8.760670 KinEng   = 0.745147 Lx       = 24.425319 
Ly       = 24.425319 Lz       = 24.425319 Density  = 1.051090 
Volume   = 14572.053237 
---------------- Step  3600000 ----- CPU =   1018.3191 (sec) ----------------
Time     = 18000000.000000 Temp     = 263.566429 Press    = 1731.919550 
PotEng   = -8.708669 KinEng   = 0.784107 Lx       = 24.368061 
Ly       = 24.368061 Lz       = 24.368061 Density  = 1.058516 
Volume   = 14469.813518 
---------------- Step  3610000 ----- CPU =   1024.7158 (sec) ----------------
Time     = 18050000.000000 Temp     = 240.136765 Press    = 1182.721480 
PotEng   = -8.800673 KinEng   = 0.714404 Lx       = 24.406570 
Ly       = 24.406570 Lz       = 24.406570 Density  = 1.053514 
Volume   = 14538.522303 
---------------- Step  3620000 ----- CPU =   1031.0996 (sec) ----------------
Time     = 18100000.000000 Temp     = 239.208241 Press    = 2042.767921 
PotEng   = -8.737988 KinEng   = 0.711642 Lx       = 24.317169 
Ly       = 24.317169 Lz       = 24.317169 Density  = 1.065176 
Volume   = 14379.342665 
---------------- Step  3630000 ----- CPU =   1037.4876 (sec) ----------------
Time     = 18150000.000000 Temp     = 243.707326 Press    = 101.049960 
PotEng   = -8.688990 KinEng   = 0.725026 Lx       = 24.426858 
Ly       = 24.426858 Lz       = 24.426858 Density  = 1.050891 
Volume   = 14574.806892 
---------------- Step  3640000 ----- CPU =   1043.8584 (sec) ----------------
Time     = 18200000.000000 Temp     = 264.902899 Press    = 971.356302 
PotEng   = -8.760750 KinEng   = 0.788083 Lx       = 24.356443 
Ly       = 24.356443 Lz       = 24.356443 Density  = 1.060032 
Volume   = 14449.126540 
---------------- Step  3650000 ----- CPU =   1050.2183 (sec) ----------------
Time     = 18250000.000000 Temp     = 237.117819 Press    = 132.148428 
PotEng   = -8.754609 KinEng   = 0.705423 Lx       = 24.531025 
Ly       = 24.531025 Lz       = 24.531025 Density  = 1.037561 
Volume   = 14762.063199 
---------------- Step  3660000 ----- CPU =   1056.5471 (sec) ----------------
Time     = 18300000.000000 Temp     = 248.675494 Press    = 1218.106926 
PotEng   = -8.753102 KinEng   = 0.739807 Lx       = 24.285783 
Ly       = 24.285783 Lz       = 24.285783 Density  = 1.069311 
Volume   = 14323.737089 
---------------- Step  3670000 ----- CPU =   1063.0054 (sec) ----------------
Time     = 18350000.000000 Temp     = 229.876456 Press    = 915.365045 
PotEng   = -8.721637 KinEng   = 0.683880 Lx       = 24.405626 
Ly       = 24.405626 Lz       = 24.405626 Density  = 1.053636 
Volume   = 14536.835019 
---------------- Step  3680000 ----- CPU =   1069.3593 (sec) ----------------
Time     = 18400000.000000 Temp     = 243.175122 Press    = 665.169331 
PotEng   = -8.700680 KinEng   = 0.723443 Lx       = 24.415483 
Ly       = 24.415483 Lz       = 24.415483 Density  = 1.052361 
Volume   = 14554.455297 
---------------- Step  3690000 ----- CPU =   1075.7579 (sec) ----------------
Time     = 18450000.000000 Temp     = 243.534912 Press    = 1166.580744 
PotEng   = -8.719018 KinEng   = 0.724513 Lx       = 24.510251 
Ly       = 24.510251 Lz       = 24.510251 Density  = 1.040201 
Volume   = 14724.592358 
---------------- Step  3700000 ----- CPU =   1082.1278 (sec) ----------------
Time     = 18500000.000000 Temp     = 242.475077 Press    = 963.253339 
PotEng   = -8.774934 KinEng   = 0.721360 Lx       = 24.351201 
Ly       = 24.351201 Lz       = 24.351201 Density  = 1.060717 
Volume   = 14439.799643 
---------------- Step  3710000 ----- CPU =   1088.4521 (sec) ----------------
Time     = 18550000.000000 Temp     = 239.737310 Press    = 1226.245834 
PotEng   = -8.736747 KinEng   = 0.713216 Lx       = 24.501985 
Ly       = 24.501985 Lz       = 24.501985 Density  = 1.041254 
Volume   = 14709.699753 
---------------- Step  3720000 ----- CPU =   1094.6367 (sec) ----------------
Time     = 18600000.000000 Temp     = 249.648049 Press    = 1572.525224 
PotEng   = -8.680275 KinEng   = 0.742700 Lx       = 24.326417 
Ly       = 24.326417 Lz       = 24.326417 Density  = 1.063962 
Volume   = 14395.754293 
---------------- Step  3730000 ----- CPU =   1101.2607 (sec) ----------------
Time     = 18650000.000000 Temp     = 242.203191 Press    = 634.100704 
PotEng   = -8.785012 KinEng   = 0.720552 Lx       = 24.366783 
Ly       = 24.366783 Lz       = 24.366783 Density  = 1.058683 
Volume   = 14467.536156 
---------------- Step  3740000 ----- CPU =   1107.6188 (sec) ----------------
Time     = 18700000.000000 Temp     = 249.916522 Press    = 1278.559875 
PotEng   = -8.776976 KinEng   = 0.743499 Lx       = 24.346175 
Ly       = 24.346175 Lz       = 24.346175 Density  = 1.061374 
Volume   = 14430.859297 
---------------- Step  3750000 ----- CPU =   1113.9990 (sec) ----------------
Time     = 18750000.000000 Temp     = 249.677109 Press    = 1051.567129 
PotEng   = -8.679678 KinEng   = 0.742786 Lx       = 24.427073 
Ly       = 24.427073 Lz       = 24.427073 Density  = 1.050863 
Volume   = 14575.191528 
---------------- Step  3760000 ----- CPU =   1120.4070 (sec) ----------------
Time     = 18800000.000000 Temp     = 251.073461 Press    = 826.864857 
PotEng   = -8.735083 KinEng   = 0.746941 Lx       = 24.434918 
Ly       = 24.434918 Lz       = 24.434918 Density  = 1.049851 
Volume   = 14589.240021 
---------------- Step  3770000 ----- CPU =   1127.0549 (sec) ----------------
Time     = 18850000.000000 Temp     = 258.671657 Press    = 988.496011 
PotEng   = -8.736892 KinEng   = 0.769545 Lx       = 24.424227 
Ly       = 24.424227 Lz       = 24.424227 Density  = 1.051231 
Volume   = 14570.097700 
---------------- Step  3780000 ----- CPU =   1133.4677 (sec) ----------------
Time     = 18900000.000000 Temp     = 246.441592 Press    = 1284.629278 
PotEng   = -8.777246 KinEng   = 0.733161 Lx       = 24.381489 
Ly       = 24.381489 Lz       = 24.381489 Density  = 1.056768 
Volume   = 14493.746975 
---------------- Step  3790000 ----- CPU =   1139.9013 (sec) ----------------
Time     = 18950000.000000 Temp     = 243.464555 Press    = -332.091137 
PotEng   = -8.723702 KinEng   = 0.724304 Lx       = 24.419177 
Ly       = 24.419177 Lz       = 24.419177 Density  = 1.051883 
Volume   = 14561.063384 
---------------- Step  3800000 ----- CPU =   1146.2128 (sec) ----------------
Time     = 19000000.000000 Temp     = 260.089094 Press    = 749.718704 
PotEng   = -8.751772 KinEng   = 0.773762 Lx       = 24.476414 
Ly       = 24.476414 Lz       = 24.476414 Density  = 1.044521 
Volume   = 14663.693069 
---------------- Step  3810000 ----- CPU =   1152.5270 (sec) ----------------
Time     = 19050000.000000 Temp     = 233.194228 Press    = -151.518412 
PotEng   = -8.759475 KinEng   = 0.693750 Lx       = 24.565189 
Ly       = 24.565189 Lz       = 24.565189 Density  = 1.033238 
Volume   = 14823.827340 
---------------- Step  3820000 ----- CPU =   1158.9019 (sec) ----------------
Time     = 19100000.000000 Temp     = 250.188549 Press    = 790.741479 
PotEng   = -8.720271 KinEng   = 0.744308 Lx       = 24.393481 
Ly       = 24.393481 Lz       = 24.393481 Density  = 1.055211 
Volume   = 14515.144225 
---------------- Step  3830000 ----- CPU =   1165.2564 (sec) ----------------
Time     = 19150000.000000 Temp     = 239.629931 Press    = 1502.602077 
PotEng   = -8.765041 KinEng   = 0.712896 Lx       = 24.424605 
Ly       = 24.424605 Lz       = 24.424605 Density  = 1.051182 
Volume   = 14570.774499 
---------------- Step  3840000 ----- CPU =   1171.5142 (sec) ----------------
Time     = 19200000.000000 Temp     = 253.035083 Press    = 556.982798 
PotEng   = -8.767333 KinEng   = 0.752776 Lx       = 24.495044 
Ly       = 24.495044 Lz       = 24.495044 Density  = 1.042140 
Volume   = 14697.201731 
---------------- Step  3850000 ----- CPU =   1177.8663 (sec) ----------------
Time     = 19250000.000000 Temp     = 246.242933 Press    = 1074.852724 
PotEng   = -8.720168 KinEng   = 0.732570 Lx       = 24.406088 
Ly       = 24.406088 Lz       = 24.406088 Density  = 1.053576 
Volume   = 14537.660749 
---------------- Step  3860000 ----- CPU =   1184.1266 (sec) ----------------
Time     = 19300000.000000 Temp     = 237.973563 Press    = 858.524823 
PotEng   = -8.712009 KinEng   = 0.707969 Lx       = 24.388073 
Ly       = 24.388073 Lz       = 24.388073 Density  = 1.055913 
Volume   = 14505.491822 
---------------- Step  3870000 ----- CPU =   1190.5697 (sec) ----------------
Time     = 19350000.000000 Temp     = 246.883901 Press    = 1746.636569 
PotEng   = -8.680427 KinEng   = 0.734477 Lx       = 24.400398 
Ly       = 24.400398 Lz       = 24.400398 Density  = 1.054314 
Volume   = 14527.494808 
---------------- Step  3880000 ----- CPU =   1196.9433 (sec) ----------------
Time     = 19400000.000000 Temp     = 241.793526 Press    = -395.566566 
PotEng   = -8.690791 KinEng   = 0.719333 Lx       = 24.497746 
Ly       = 24.497746 Lz       = 24.497746 Density  = 1.041795 
Volume   = 14702.066846 
---------------- Step  3890000 ----- CPU =   1203.2631 (sec) ----------------
Time     = 19450000.000000 Temp     = 266.819862 Press    = 731.998774 
PotEng   = -8.733475 KinEng   = 0.793786 Lx       = 24.434939 
Ly       = 24.434939 Lz       = 24.434939 Density  = 1.049849 
Volume   = 14589.276382 
---------------- Step  3900000 ----- CPU =   1209.7014 (sec) ----------------
Time     = 19500000.000000 Temp     = 241.346671 Press    = 2152.563384 
PotEng   = -8.726849 KinEng   = 0.718003 Lx       = 24.403462 
Ly       = 24.403462 Lz       = 24.403462 Density  = 1.053917 
Volume   = 14532.967779 
---------------- Step  3910000 ----- CPU =   1216.0987 (sec) ----------------
Time     = 19550000.000000 Temp     = 249.667717 Press    = 2568.591557 
PotEng   = -8.698709 KinEng   = 0.742758 Lx       = 24.353338 
Ly       = 24.353338 Lz       = 24.353338 Density  = 1.060437 
Volume   = 14443.601944 
---------------- Step  3920000 ----- CPU =   1222.4926 (sec) ----------------
Time     = 19600000.000000 Temp     = 265.617115 Press    = 1459.627770 
PotEng   = -8.758473 KinEng   = 0.790208 Lx       = 24.459722 
Ly       = 24.459722 Lz       = 24.459722 Density  = 1.046661 
Volume   = 14633.712720 
---------------- Step  3930000 ----- CPU =   1228.8963 (sec) ----------------
Time     = 19650000.000000 Temp     = 253.016197 Press    = 268.630375 
PotEng   = -8.726617 KinEng   = 0.752720 Lx       = 24.329263 
Ly       = 24.329263 Lz       = 24.329263 Density  = 1.063589 
Volume   = 14400.808786 
---------------- Step  3940000 ----- CPU =   1235.3964 (sec) ----------------
Time     = 19700000.000000 Temp     = 248.705500 Press    = 1142.989788 
PotEng   = -8.725594 KinEng   = 0.739896 Lx       = 24.456989 
Ly       = 24.456989 Lz       = 24.456989 Density  = 1.047012 
Volume   = 14628.808379 
---------------- Step  3950000 ----- CPU =   1241.7115 (sec) ----------------
Time     = 19750000.000000 Temp     = 261.109150 Press    = 1844.641773 
PotEng   = -8.695657 KinEng   = 0.776797 Lx       = 24.300720 
Ly       = 24.300720 Lz       = 24.300720 Density  = 1.067341 
Volume   = 14350.182706 
---------------- Step  3960000 ----- CPU =   1248.0831 (sec) ----------------
Time     = 19800000.000000 Temp     = 265.574042 Press    = 732.317614 
PotEng   = -8.815947 KinEng   = 0.790080 Lx       = 24.656424 
Ly       = 24.656424 Lz       = 24.656424 Density  = 1.021810 
Volume   = 14989.608616 
---------------- Step  3970000 ----- CPU =   1254.5073 (sec) ----------------
Time     = 19850000.000000 Temp     = 261.173325 Press    = 780.176781 
PotEng   = -8.691873 KinEng   = 0.776988 Lx       = 24.430520 
Ly       = 24.430520 Lz       = 24.430520 Density  = 1.050419 
Volume   = 14581.363898 
---------------- Step  3980000 ----- CPU =   1260.8020 (sec) ----------------
Time     = 19900000.000000 Temp     = 239.440717 Press    = 1696.866833 
PotEng   = -8.725654 KinEng   = 0.712333 Lx       = 24.574530 
Ly       = 24.574530 Lz       = 24.574530 Density  = 1.032060 
Volume   = 14840.743709 
---------------- Step  3990000 ----- CPU =   1267.1480 (sec) ----------------
Time     = 19950000.000000 Temp     = 263.040996 Press    = 968.681486 
PotEng   = -8.739060 KinEng   = 0.782544 Lx       = 24.489206 
Ly       = 24.489206 Lz       = 24.489206 Density  = 1.042885 
Volume   = 14686.695856 
---------------- Step  4000000 ----- CPU =   1273.5979 (sec) ----------------
Time     = 20000000.000000 Temp     = 269.168839 Press    = 236.310533 
PotEng   = -8.726558 KinEng   = 0.800774 Lx       = 24.480738 
Ly       = 24.480738 Lz       = 24.480738 Density  = 1.043968 
Volume   = 14671.465813 
Loop time of 1273.59 on 6 procs for 2000000 steps with 512 atoms

Performance: 678.395 ns/day, 0.035 hours/ns, 1570.360 timesteps/s
100.0% CPU use with 6 MPI tasks x no OpenMP threads

MPI task timing breakdown:
Section |  min time  |  avg time  |  max time  |%varavg| %total
---------------------------------------------------------------
Pair    | 1064.3     | 1069.6     | 1074.1     |  10.5 | 83.98
Neigh   | 18.205     | 18.249     | 18.294     |   0.6 |  1.43
Comm    | 157.64     | 162.12     | 167.41     |  27.0 | 12.73
Output  | 0.0083552  | 0.015265   | 0.049771   |  12.5 |  0.00
Modify  | 19.397     | 19.56      | 19.772     |   2.9 |  1.54
Other   |            | 4.062      |            |       |  0.32

Nlocal:    85.3333 ave 90 max 81 min
Histogram: 1 0 1 2 0 0 0 0 0 2
Nghost:    484.333 ave 496 max 478 min
Histogram: 2 1 0 0 1 1 0 0 0 1
Neighs:    0 ave 0 max 0 min
Histogram: 6 0 0 0 0 0 0 0 0 0
FullNghs:  2096.33 ave 2220 max 1978 min
Histogram: 1 0 1 2 0 0 0 0 0 2

Total # of neighbors = 12578
Ave neighs/atom = 24.5664
Neighbor list builds = 104529
Dangerous builds = 0

write_data data.final
Total wall time: 0:42:24
