LAMMPS (4 Jan 2019)
Reading data file ...
  orthogonal box = (0.023176 0.023176 0.023176) to (24.8118 24.8118 24.8118)
  2 by 2 by 2 MPI processor grid
  reading atoms ...
  512 atoms
  reading velocities ...
  512 velocities
Neighbor list info ...
  update every 1 steps, delay 0 steps, check yes
  max neighbors/atom: 2000, page size: 100000
  master list distance cutoff = 6.3065
  ghost atom cutoff = 6.3065
  1 neighbor lists, perpetual/occasional/extra = 1 0 0
  (1) pair sw, perpetual
      attributes: full, newton on
      pair build: full/nsq
      stencil: none
      bin: none
Setting up Verlet run ...
  Unit style    : real
  Current step  : 0
  Time step     : 5
Per MPI rank memory allocation (min/avg/max) = 2.684 | 2.684 | 2.684 Mbytes
---------------- Step        0 ----- CPU =      0.0000 (sec) ----------------
Time     = 0.000000 Temp     = 300.000000 Press    = 840.214492 
PotEng   = -10.089885 KinEng   = 0.892496 Lx       = 24.788648 
Ly       = 24.788648 Lz       = 24.788648 Density  = 1.005546 
---------------- Step     1000 ----- CPU =      0.5128 (sec) ----------------
Time     = 5000.000000 Temp     = 297.529832 Press    = 987.954843 
PotEng   = -10.063429 KinEng   = 0.885148 Lx       = 24.780793 
Ly       = 24.780793 Lz       = 24.780793 Density  = 1.006503 
---------------- Step     2000 ----- CPU =      1.0421 (sec) ----------------
Time     = 10000.000000 Temp     = 294.851565 Press    = -211.959254 
PotEng   = -10.127379 KinEng   = 0.877180 Lx       = 24.875635 
Ly       = 24.875635 Lz       = 24.875635 Density  = 0.995034 
---------------- Step     3000 ----- CPU =      1.5579 (sec) ----------------
Time     = 15000.000000 Temp     = 302.583940 Press    = -254.997946 
PotEng   = -10.016725 KinEng   = 0.900184 Lx       = 24.766602 
Ly       = 24.766602 Lz       = 24.766602 Density  = 1.008234 
---------------- Step     4000 ----- CPU =      2.0669 (sec) ----------------
Time     = 20000.000000 Temp     = 298.524032 Press    = -798.129356 
PotEng   = -10.061264 KinEng   = 0.888105 Lx       = 25.045110 
Ly       = 25.045110 Lz       = 25.045110 Density  = 0.974971 
---------------- Step     5000 ----- CPU =      2.5825 (sec) ----------------
Time     = 25000.000000 Temp     = 297.696103 Press    = -239.621319 
PotEng   = -10.046039 KinEng   = 0.885642 Lx       = 24.887914 
Ly       = 24.887914 Lz       = 24.887914 Density  = 0.993562 
---------------- Step     6000 ----- CPU =      3.0933 (sec) ----------------
Time     = 30000.000000 Temp     = 284.729504 Press    = 408.220230 
PotEng   = -10.094049 KinEng   = 0.847067 Lx       = 24.818789 
Ly       = 24.818789 Lz       = 24.818789 Density  = 1.001887 
---------------- Step     7000 ----- CPU =      3.6074 (sec) ----------------
Time     = 35000.000000 Temp     = 307.674842 Press    = 164.714763 
PotEng   = -10.075202 KinEng   = 0.915329 Lx       = 24.878937 
Ly       = 24.878937 Lz       = 24.878937 Density  = 0.994638 
---------------- Step     8000 ----- CPU =      4.1162 (sec) ----------------
Time     = 40000.000000 Temp     = 297.180919 Press    = 1557.663265 
PotEng   = -10.098225 KinEng   = 0.884110 Lx       = 24.746272 
Ly       = 24.746272 Lz       = 24.746272 Density  = 1.010721 
---------------- Step     9000 ----- CPU =      4.6323 (sec) ----------------
Time     = 45000.000000 Temp     = 291.671873 Press    = -232.431951 
PotEng   = -10.074204 KinEng   = 0.867720 Lx       = 24.876474 
Ly       = 24.876474 Lz       = 24.876474 Density  = 0.994933 
---------------- Step    10000 ----- CPU =      5.1388 (sec) ----------------
Time     = 50000.000000 Temp     = 286.549016 Press    = -1603.082071 
PotEng   = -10.074069 KinEng   = 0.852480 Lx       = 24.953601 
Ly       = 24.953601 Lz       = 24.953601 Density  = 0.985736 
---------------- Step    11000 ----- CPU =      5.6424 (sec) ----------------
Time     = 55000.000000 Temp     = 291.547689 Press    = -243.600516 
PotEng   = -10.080322 KinEng   = 0.867351 Lx       = 24.821825 
Ly       = 24.821825 Lz       = 24.821825 Density  = 1.001519 
---------------- Step    12000 ----- CPU =      6.1458 (sec) ----------------
Time     = 60000.000000 Temp     = 317.432224 Press    = -1051.724804 
PotEng   = -10.060739 KinEng   = 0.944357 Lx       = 24.888270 
Ly       = 24.888270 Lz       = 24.888270 Density  = 0.993520 
---------------- Step    13000 ----- CPU =      6.6582 (sec) ----------------
Time     = 65000.000000 Temp     = 281.696587 Press    = 390.997959 
PotEng   = -10.069112 KinEng   = 0.838044 Lx       = 24.845550 
Ly       = 24.845550 Lz       = 24.845550 Density  = 0.998653 
---------------- Step    14000 ----- CPU =      7.1676 (sec) ----------------
Time     = 70000.000000 Temp     = 294.278154 Press    = -442.852232 
PotEng   = -10.089559 KinEng   = 0.875474 Lx       = 24.876429 
Ly       = 24.876429 Lz       = 24.876429 Density  = 0.994939 
---------------- Step    15000 ----- CPU =      7.6827 (sec) ----------------
Time     = 75000.000000 Temp     = 318.917121 Press    = 787.120203 
PotEng   = -10.107016 KinEng   = 0.948775 Lx       = 24.771755 
Ly       = 24.771755 Lz       = 24.771755 Density  = 1.007605 
---------------- Step    16000 ----- CPU =      8.1928 (sec) ----------------
Time     = 80000.000000 Temp     = 317.286323 Press    = -534.400922 
PotEng   = -10.083075 KinEng   = 0.943923 Lx       = 24.827933 
Ly       = 24.827933 Lz       = 24.827933 Density  = 1.000780 
---------------- Step    17000 ----- CPU =      8.7064 (sec) ----------------
Time     = 85000.000000 Temp     = 272.757070 Press    = 583.198937 
PotEng   = -10.085773 KinEng   = 0.811449 Lx       = 24.827773 
Ly       = 24.827773 Lz       = 24.827773 Density  = 1.000800 
---------------- Step    18000 ----- CPU =      9.2171 (sec) ----------------
Time     = 90000.000000 Temp     = 277.849417 Press    = -585.755748 
PotEng   = -10.083234 KinEng   = 0.826599 Lx       = 24.821096 
Ly       = 24.821096 Lz       = 24.821096 Density  = 1.001608 
---------------- Step    19000 ----- CPU =      9.7274 (sec) ----------------
Time     = 95000.000000 Temp     = 322.091486 Press    = -145.064258 
PotEng   = -10.052784 KinEng   = 0.958218 Lx       = 24.794974 
Ly       = 24.794974 Lz       = 24.794974 Density  = 1.004777 
---------------- Step    20000 ----- CPU =     10.2467 (sec) ----------------
Time     = 100000.000000 Temp     = 309.133020 Press    = -359.043547 
PotEng   = -10.039866 KinEng   = 0.919667 Lx       = 24.907757 
Ly       = 24.907757 Lz       = 24.907757 Density  = 0.991189 
---------------- Step    21000 ----- CPU =     10.7542 (sec) ----------------
Time     = 105000.000000 Temp     = 292.957024 Press    = -51.025794 
PotEng   = -10.124217 KinEng   = 0.871544 Lx       = 24.818935 
Ly       = 24.818935 Lz       = 24.818935 Density  = 1.001869 
---------------- Step    22000 ----- CPU =     11.2653 (sec) ----------------
Time     = 110000.000000 Temp     = 283.349938 Press    = -935.169239 
PotEng   = -10.087765 KinEng   = 0.842963 Lx       = 24.905936 
Ly       = 24.905936 Lz       = 24.905936 Density  = 0.991407 
---------------- Step    23000 ----- CPU =     11.7774 (sec) ----------------
Time     = 115000.000000 Temp     = 296.752708 Press    = -661.481567 
PotEng   = -10.096050 KinEng   = 0.882836 Lx       = 24.863636 
Ly       = 24.863636 Lz       = 24.863636 Density  = 0.996475 
---------------- Step    24000 ----- CPU =     12.2925 (sec) ----------------
Time     = 120000.000000 Temp     = 287.962976 Press    = -888.424654 
PotEng   = -10.033531 KinEng   = 0.856686 Lx       = 24.881292 
Ly       = 24.881292 Lz       = 24.881292 Density  = 0.994356 
---------------- Step    25000 ----- CPU =     12.7999 (sec) ----------------
Time     = 125000.000000 Temp     = 312.419943 Press    = 469.081021 
PotEng   = -10.110199 KinEng   = 0.929446 Lx       = 24.840759 
Ly       = 24.840759 Lz       = 24.840759 Density  = 0.999231 
---------------- Step    26000 ----- CPU =     13.3120 (sec) ----------------
Time     = 130000.000000 Temp     = 303.064125 Press    = 1582.607895 
PotEng   = -10.020446 KinEng   = 0.901612 Lx       = 24.750792 
Ly       = 24.750792 Lz       = 24.750792 Density  = 1.010167 
---------------- Step    27000 ----- CPU =     13.8328 (sec) ----------------
Time     = 135000.000000 Temp     = 304.911922 Press    = 168.345754 
PotEng   = -10.046294 KinEng   = 0.907109 Lx       = 24.808899 
Ly       = 24.808899 Lz       = 24.808899 Density  = 1.003086 
---------------- Step    28000 ----- CPU =     14.3652 (sec) ----------------
Time     = 140000.000000 Temp     = 298.731524 Press    = 765.033290 
PotEng   = -10.093722 KinEng   = 0.888723 Lx       = 24.797882 
Ly       = 24.797882 Lz       = 24.797882 Density  = 1.004423 
---------------- Step    29000 ----- CPU =     14.8799 (sec) ----------------
Time     = 145000.000000 Temp     = 302.038519 Press    = -778.515250 
PotEng   = -9.996417 KinEng   = 0.898561 Lx       = 24.870876 
Ly       = 24.870876 Lz       = 24.870876 Density  = 0.995605 
---------------- Step    30000 ----- CPU =     15.3870 (sec) ----------------
Time     = 150000.000000 Temp     = 300.195134 Press    = 1013.357629 
PotEng   = -10.140107 KinEng   = 0.893077 Lx       = 24.837784 
Ly       = 24.837784 Lz       = 24.837784 Density  = 0.999590 
---------------- Step    31000 ----- CPU =     15.9018 (sec) ----------------
Time     = 155000.000000 Temp     = 289.549307 Press    = 404.077621 
PotEng   = -10.102086 KinEng   = 0.861406 Lx       = 24.810585 
Ly       = 24.810585 Lz       = 24.810585 Density  = 1.002881 
---------------- Step    32000 ----- CPU =     16.4160 (sec) ----------------
Time     = 160000.000000 Temp     = 294.729104 Press    = 317.226056 
PotEng   = -10.126042 KinEng   = 0.876816 Lx       = 24.794855 
Ly       = 24.794855 Lz       = 24.794855 Density  = 1.004791 
---------------- Step    33000 ----- CPU =     16.9137 (sec) ----------------
Time     = 165000.000000 Temp     = 311.140925 Press    = -1050.904468 
PotEng   = -10.060226 KinEng   = 0.925641 Lx       = 24.965647 
Ly       = 24.965647 Lz       = 24.965647 Density  = 0.984310 
---------------- Step    34000 ----- CPU =     17.4230 (sec) ----------------
Time     = 170000.000000 Temp     = 308.730683 Press    = 305.742162 
PotEng   = -10.078263 KinEng   = 0.918470 Lx       = 24.851278 
Ly       = 24.851278 Lz       = 24.851278 Density  = 0.997963 
---------------- Step    35000 ----- CPU =     17.9345 (sec) ----------------
Time     = 175000.000000 Temp     = 288.933999 Press    = -299.035684 
PotEng   = -10.024855 KinEng   = 0.859575 Lx       = 24.951169 
Ly       = 24.951169 Lz       = 24.951169 Density  = 0.986025 
---------------- Step    36000 ----- CPU =     18.4513 (sec) ----------------
Time     = 180000.000000 Temp     = 311.950480 Press    = -344.242149 
PotEng   = -10.096253 KinEng   = 0.928049 Lx       = 24.940191 
Ly       = 24.940191 Lz       = 24.940191 Density  = 0.987327 
---------------- Step    37000 ----- CPU =     18.9547 (sec) ----------------
Time     = 185000.000000 Temp     = 319.836210 Press    = 614.305905 
PotEng   = -10.048303 KinEng   = 0.951509 Lx       = 24.924670 
Ly       = 24.924670 Lz       = 24.924670 Density  = 0.989173 
---------------- Step    38000 ----- CPU =     19.4644 (sec) ----------------
Time     = 190000.000000 Temp     = 294.107304 Press    = -545.104265 
PotEng   = -10.080612 KinEng   = 0.874966 Lx       = 24.845926 
Ly       = 24.845926 Lz       = 24.845926 Density  = 0.998608 
---------------- Step    39000 ----- CPU =     19.9747 (sec) ----------------
Time     = 195000.000000 Temp     = 297.888236 Press    = -687.336920 
PotEng   = -10.056012 KinEng   = 0.886214 Lx       = 25.016109 
Ly       = 25.016109 Lz       = 25.016109 Density  = 0.978366 
---------------- Step    40000 ----- CPU =     20.4869 (sec) ----------------
Time     = 200000.000000 Temp     = 308.094724 Press    = 666.711077 
PotEng   = -10.097028 KinEng   = 0.916578 Lx       = 24.708850 
Ly       = 24.708850 Lz       = 24.708850 Density  = 1.015320 
---------------- Step    41000 ----- CPU =     20.9940 (sec) ----------------
Time     = 205000.000000 Temp     = 311.053986 Press    = -691.674169 
PotEng   = -10.091095 KinEng   = 0.925382 Lx       = 24.842439 
Ly       = 24.842439 Lz       = 24.842439 Density  = 0.999028 
---------------- Step    42000 ----- CPU =     21.5084 (sec) ----------------
Time     = 210000.000000 Temp     = 286.236770 Press    = -158.932498 
PotEng   = -10.123849 KinEng   = 0.851551 Lx       = 24.866829 
Ly       = 24.866829 Lz       = 24.866829 Density  = 0.996092 
---------------- Step    43000 ----- CPU =     22.0268 (sec) ----------------
Time     = 215000.000000 Temp     = 300.399450 Press    = -238.678429 
PotEng   = -10.060695 KinEng   = 0.893685 Lx       = 24.769733 
Ly       = 24.769733 Lz       = 24.769733 Density  = 1.007852 
---------------- Step    44000 ----- CPU =     22.5530 (sec) ----------------
Time     = 220000.000000 Temp     = 294.538885 Press    = 728.243076 
PotEng   = -10.091186 KinEng   = 0.876250 Lx       = 24.726092 
Ly       = 24.726092 Lz       = 24.726092 Density  = 1.013197 
---------------- Step    45000 ----- CPU =     23.0650 (sec) ----------------
Time     = 225000.000000 Temp     = 293.012284 Press    = 41.672357 
PotEng   = -10.128169 KinEng   = 0.871708 Lx       = 24.837487 
Ly       = 24.837487 Lz       = 24.837487 Density  = 0.999626 
---------------- Step    46000 ----- CPU =     23.5778 (sec) ----------------
Time     = 230000.000000 Temp     = 315.388308 Press    = -146.402968 
PotEng   = -9.988284 KinEng   = 0.938276 Lx       = 24.823072 
Ly       = 24.823072 Lz       = 24.823072 Density  = 1.001368 
---------------- Step    47000 ----- CPU =     24.0863 (sec) ----------------
Time     = 235000.000000 Temp     = 289.931839 Press    = -196.954509 
PotEng   = -10.072233 KinEng   = 0.862544 Lx       = 24.778418 
Ly       = 24.778418 Lz       = 24.778418 Density  = 1.006792 
---------------- Step    48000 ----- CPU =     24.5966 (sec) ----------------
Time     = 240000.000000 Temp     = 297.634863 Press    = 738.276156 
PotEng   = -10.087285 KinEng   = 0.885460 Lx       = 24.832422 
Ly       = 24.832422 Lz       = 24.832422 Density  = 1.000238 
---------------- Step    49000 ----- CPU =     25.1125 (sec) ----------------
Time     = 245000.000000 Temp     = 291.393333 Press    = -1361.906507 
PotEng   = -10.034957 KinEng   = 0.866892 Lx       = 24.981082 
Ly       = 24.981082 Lz       = 24.981082 Density  = 0.982487 
---------------- Step    50000 ----- CPU =     25.6221 (sec) ----------------
Time     = 250000.000000 Temp     = 309.071043 Press    = 865.581897 
PotEng   = -10.029248 KinEng   = 0.919483 Lx       = 24.866585 
Ly       = 24.866585 Lz       = 24.866585 Density  = 0.996121 
---------------- Step    51000 ----- CPU =     26.1553 (sec) ----------------
Time     = 255000.000000 Temp     = 306.471449 Press    = 687.986759 
PotEng   = -10.104943 KinEng   = 0.911749 Lx       = 24.787153 
Ly       = 24.787153 Lz       = 24.787153 Density  = 1.005728 
---------------- Step    52000 ----- CPU =     26.7003 (sec) ----------------
Time     = 260000.000000 Temp     = 304.189643 Press    = 422.573776 
PotEng   = -10.099279 KinEng   = 0.904961 Lx       = 24.810475 
Ly       = 24.810475 Lz       = 24.810475 Density  = 1.002895 
---------------- Step    53000 ----- CPU =     27.2673 (sec) ----------------
Time     = 265000.000000 Temp     = 286.575109 Press    = -49.150703 
PotEng   = -10.099030 KinEng   = 0.852558 Lx       = 24.767535 
Ly       = 24.767535 Lz       = 24.767535 Density  = 1.008120 
---------------- Step    54000 ----- CPU =     27.7863 (sec) ----------------
Time     = 270000.000000 Temp     = 306.215463 Press    = 233.036749 
PotEng   = -10.057661 KinEng   = 0.910987 Lx       = 24.846171 
Ly       = 24.846171 Lz       = 24.846171 Density  = 0.998578 
---------------- Step    55000 ----- CPU =     28.3046 (sec) ----------------
Time     = 275000.000000 Temp     = 282.811067 Press    = -508.387675 
PotEng   = -9.975843 KinEng   = 0.841360 Lx       = 24.885410 
Ly       = 24.885410 Lz       = 24.885410 Density  = 0.993862 
---------------- Step    56000 ----- CPU =     28.8076 (sec) ----------------
Time     = 280000.000000 Temp     = 290.916406 Press    = 782.386775 
PotEng   = -10.088659 KinEng   = 0.865473 Lx       = 24.801796 
Ly       = 24.801796 Lz       = 24.801796 Density  = 1.003948 
---------------- Step    57000 ----- CPU =     29.3313 (sec) ----------------
Time     = 285000.000000 Temp     = 300.541601 Press    = -1268.535748 
PotEng   = -10.064863 KinEng   = 0.894108 Lx       = 24.868240 
Ly       = 24.868240 Lz       = 24.868240 Density  = 0.995922 
---------------- Step    58000 ----- CPU =     29.8454 (sec) ----------------
Time     = 290000.000000 Temp     = 294.235000 Press    = -235.909897 
PotEng   = -10.060890 KinEng   = 0.875346 Lx       = 24.904437 
Ly       = 24.904437 Lz       = 24.904437 Density  = 0.991586 
---------------- Step    59000 ----- CPU =     30.3549 (sec) ----------------
Time     = 295000.000000 Temp     = 287.848072 Press    = 1412.483716 
PotEng   = -10.092824 KinEng   = 0.856345 Lx       = 24.729210 
Ly       = 24.729210 Lz       = 24.729210 Density  = 1.012814 
---------------- Step    60000 ----- CPU =     30.8534 (sec) ----------------
Time     = 300000.000000 Temp     = 272.363097 Press    = 180.124324 
PotEng   = -10.049825 KinEng   = 0.810277 Lx       = 24.895925 
Ly       = 24.895925 Lz       = 24.895925 Density  = 0.992603 
---------------- Step    61000 ----- CPU =     31.3648 (sec) ----------------
Time     = 305000.000000 Temp     = 298.837813 Press    = 220.738690 
PotEng   = -10.051902 KinEng   = 0.889039 Lx       = 24.714645 
Ly       = 24.714645 Lz       = 24.714645 Density  = 1.014606 
---------------- Step    62000 ----- CPU =     31.8805 (sec) ----------------
Time     = 310000.000000 Temp     = 296.218618 Press    = 273.301252 
PotEng   = -10.063120 KinEng   = 0.881247 Lx       = 24.844132 
Ly       = 24.844132 Lz       = 24.844132 Density  = 0.998824 
---------------- Step    63000 ----- CPU =     32.3959 (sec) ----------------
Time     = 315000.000000 Temp     = 310.387713 Press    = -151.132806 
PotEng   = -10.061466 KinEng   = 0.923400 Lx       = 24.921878 
Ly       = 24.921878 Lz       = 24.921878 Density  = 0.989505 
---------------- Step    64000 ----- CPU =     32.9193 (sec) ----------------
Time     = 320000.000000 Temp     = 294.522243 Press    = 23.264155 
PotEng   = -10.061760 KinEng   = 0.876200 Lx       = 24.804124 
Ly       = 24.804124 Lz       = 24.804124 Density  = 1.003665 
---------------- Step    65000 ----- CPU =     33.4375 (sec) ----------------
Time     = 325000.000000 Temp     = 310.014274 Press    = 291.777131 
PotEng   = -10.064502 KinEng   = 0.922289 Lx       = 24.777632 
Ly       = 24.777632 Lz       = 24.777632 Density  = 1.006888 
---------------- Step    66000 ----- CPU =     33.9542 (sec) ----------------
Time     = 330000.000000 Temp     = 282.700724 Press    = -32.953108 
PotEng   = -10.075307 KinEng   = 0.841031 Lx       = 24.882313 
Ly       = 24.882313 Lz       = 24.882313 Density  = 0.994233 
---------------- Step    67000 ----- CPU =     34.4762 (sec) ----------------
Time     = 335000.000000 Temp     = 307.933982 Press    = -341.609455 
PotEng   = -10.057864 KinEng   = 0.916100 Lx       = 24.881695 
Ly       = 24.881695 Lz       = 24.881695 Density  = 0.994307 
---------------- Step    68000 ----- CPU =     34.9886 (sec) ----------------
Time     = 340000.000000 Temp     = 292.526316 Press    = -2195.066891 
PotEng   = -10.066682 KinEng   = 0.870262 Lx       = 24.977080 
Ly       = 24.977080 Lz       = 24.977080 Density  = 0.982959 
---------------- Step    69000 ----- CPU =     35.5029 (sec) ----------------
Time     = 345000.000000 Temp     = 304.556741 Press    = 1147.522590 
PotEng   = -10.100708 KinEng   = 0.906053 Lx       = 24.814514 
Ly       = 24.814514 Lz       = 24.814514 Density  = 1.002405 
---------------- Step    70000 ----- CPU =     36.0136 (sec) ----------------
Time     = 350000.000000 Temp     = 298.634770 Press    = 198.995878 
PotEng   = -10.007478 KinEng   = 0.888435 Lx       = 24.862360 
Ly       = 24.862360 Lz       = 24.862360 Density  = 0.996629 
---------------- Step    71000 ----- CPU =     36.5227 (sec) ----------------
Time     = 355000.000000 Temp     = 290.849340 Press    = 476.799982 
PotEng   = -10.131116 KinEng   = 0.865273 Lx       = 24.963621 
Ly       = 24.963621 Lz       = 24.963621 Density  = 0.984550 
---------------- Step    72000 ----- CPU =     37.0314 (sec) ----------------
Time     = 360000.000000 Temp     = 290.496802 Press    = -980.594249 
PotEng   = -9.989501 KinEng   = 0.864225 Lx       = 24.924577 
Ly       = 24.924577 Lz       = 24.924577 Density  = 0.989184 
---------------- Step    73000 ----- CPU =     37.5502 (sec) ----------------
Time     = 365000.000000 Temp     = 302.222325 Press    = 393.294119 
PotEng   = -10.014781 KinEng   = 0.899108 Lx       = 24.881081 
Ly       = 24.881081 Lz       = 24.881081 Density  = 0.994381 
---------------- Step    74000 ----- CPU =     38.0617 (sec) ----------------
Time     = 370000.000000 Temp     = 298.389734 Press    = 425.652712 
PotEng   = -10.106284 KinEng   = 0.887706 Lx       = 24.774628 
Ly       = 24.774628 Lz       = 24.774628 Density  = 1.007254 
---------------- Step    75000 ----- CPU =     38.5832 (sec) ----------------
Time     = 375000.000000 Temp     = 309.251573 Press    = -21.622848 
PotEng   = -10.003453 KinEng   = 0.920020 Lx       = 24.882700 
Ly       = 24.882700 Lz       = 24.882700 Density  = 0.994187 
---------------- Step    76000 ----- CPU =     39.0864 (sec) ----------------
Time     = 380000.000000 Temp     = 300.925403 Press    = 567.149264 
PotEng   = -10.096426 KinEng   = 0.895250 Lx       = 24.857411 
Ly       = 24.857411 Lz       = 24.857411 Density  = 0.997224 
---------------- Step    77000 ----- CPU =     39.5984 (sec) ----------------
Time     = 385000.000000 Temp     = 305.478249 Press    = -129.035865 
PotEng   = -10.112366 KinEng   = 0.908794 Lx       = 24.862352 
Ly       = 24.862352 Lz       = 24.862352 Density  = 0.996630 
---------------- Step    78000 ----- CPU =     40.1150 (sec) ----------------
Time     = 390000.000000 Temp     = 312.553602 Press    = -470.333232 
PotEng   = -10.074147 KinEng   = 0.929843 Lx       = 24.841299 
Ly       = 24.841299 Lz       = 24.841299 Density  = 0.999166 
---------------- Step    79000 ----- CPU =     40.6267 (sec) ----------------
Time     = 395000.000000 Temp     = 304.518164 Press    = -1026.638067 
PotEng   = -10.054115 KinEng   = 0.905938 Lx       = 24.865816 
Ly       = 24.865816 Lz       = 24.865816 Density  = 0.996213 
---------------- Step    80000 ----- CPU =     41.1418 (sec) ----------------
Time     = 400000.000000 Temp     = 312.404763 Press    = -943.793506 
PotEng   = -10.105044 KinEng   = 0.929400 Lx       = 24.853539 
Ly       = 24.853539 Lz       = 24.853539 Density  = 0.997690 
---------------- Step    81000 ----- CPU =     41.6668 (sec) ----------------
Time     = 405000.000000 Temp     = 291.706755 Press    = 633.742525 
PotEng   = -10.101622 KinEng   = 0.867824 Lx       = 24.852235 
Ly       = 24.852235 Lz       = 24.852235 Density  = 0.997848 
---------------- Step    82000 ----- CPU =     42.1795 (sec) ----------------
Time     = 410000.000000 Temp     = 309.659643 Press    = 587.245162 
PotEng   = -10.049317 KinEng   = 0.921234 Lx       = 24.836850 
Ly       = 24.836850 Lz       = 24.836850 Density  = 0.999703 
---------------- Step    83000 ----- CPU =     42.6875 (sec) ----------------
Time     = 415000.000000 Temp     = 302.800447 Press    = -898.518351 
PotEng   = -10.064547 KinEng   = 0.900828 Lx       = 24.905788 
Ly       = 24.905788 Lz       = 24.905788 Density  = 0.991424 
---------------- Step    84000 ----- CPU =     43.2018 (sec) ----------------
Time     = 420000.000000 Temp     = 297.825257 Press    = -551.444675 
PotEng   = -10.101518 KinEng   = 0.886027 Lx       = 24.826872 
Ly       = 24.826872 Lz       = 24.826872 Density  = 1.000909 
---------------- Step    85000 ----- CPU =     43.7179 (sec) ----------------
Time     = 425000.000000 Temp     = 280.971619 Press    = 46.598361 
PotEng   = -10.139980 KinEng   = 0.835887 Lx       = 24.763921 
Ly       = 24.763921 Lz       = 24.763921 Density  = 1.008561 
---------------- Step    86000 ----- CPU =     44.2199 (sec) ----------------
Time     = 430000.000000 Temp     = 308.819206 Press    = 38.898176 
PotEng   = -9.995315 KinEng   = 0.918733 Lx       = 24.991313 
Ly       = 24.991313 Lz       = 24.991313 Density  = 0.981281 
---------------- Step    87000 ----- CPU =     44.7372 (sec) ----------------
Time     = 435000.000000 Temp     = 295.001547 Press    = 177.804898 
PotEng   = -10.085296 KinEng   = 0.877626 Lx       = 24.760327 
Ly       = 24.760327 Lz       = 24.760327 Density  = 1.009000 
---------------- Step    88000 ----- CPU =     45.2606 (sec) ----------------
Time     = 440000.000000 Temp     = 311.208486 Press    = -704.786671 
PotEng   = -10.012856 KinEng   = 0.925842 Lx       = 24.779200 
Ly       = 24.779200 Lz       = 24.779200 Density  = 1.006697 
---------------- Step    89000 ----- CPU =     45.7693 (sec) ----------------
Time     = 445000.000000 Temp     = 304.762216 Press    = -203.228625 
PotEng   = -10.068804 KinEng   = 0.906664 Lx       = 24.946363 
Ly       = 24.946363 Lz       = 24.946363 Density  = 0.986595 
---------------- Step    90000 ----- CPU =     46.2849 (sec) ----------------
Time     = 450000.000000 Temp     = 306.134530 Press    = 216.640248 
PotEng   = -10.038400 KinEng   = 0.910747 Lx       = 24.857994 
Ly       = 24.857994 Lz       = 24.857994 Density  = 0.997154 
---------------- Step    91000 ----- CPU =     46.7932 (sec) ----------------
Time     = 455000.000000 Temp     = 287.737067 Press    = 733.345786 
PotEng   = -10.060413 KinEng   = 0.856014 Lx       = 24.807334 
Ly       = 24.807334 Lz       = 24.807334 Density  = 1.003276 
---------------- Step    92000 ----- CPU =     47.3017 (sec) ----------------
Time     = 460000.000000 Temp     = 288.558761 Press    = 319.537883 
PotEng   = -10.060924 KinEng   = 0.858459 Lx       = 24.869673 
Ly       = 24.869673 Lz       = 24.869673 Density  = 0.995750 
---------------- Step    93000 ----- CPU =     47.8165 (sec) ----------------
Time     = 465000.000000 Temp     = 295.220597 Press    = 7.793689 
PotEng   = -10.091285 KinEng   = 0.878278 Lx       = 24.823893 
Ly       = 24.823893 Lz       = 24.823893 Density  = 1.001269 
---------------- Step    94000 ----- CPU =     48.3222 (sec) ----------------
Time     = 470000.000000 Temp     = 293.555417 Press    = -469.413033 
PotEng   = -10.017668 KinEng   = 0.873324 Lx       = 24.933908 
Ly       = 24.933908 Lz       = 24.933908 Density  = 0.988074 
---------------- Step    95000 ----- CPU =     48.8361 (sec) ----------------
Time     = 475000.000000 Temp     = 319.665889 Press    = 566.595396 
PotEng   = -10.107403 KinEng   = 0.951002 Lx       = 24.864671 
Ly       = 24.864671 Lz       = 24.864671 Density  = 0.996351 
---------------- Step    96000 ----- CPU =     49.3473 (sec) ----------------
Time     = 480000.000000 Temp     = 298.380193 Press    = -913.851015 
PotEng   = -10.031255 KinEng   = 0.887678 Lx       = 24.810133 
Ly       = 24.810133 Lz       = 24.810133 Density  = 1.002936 
---------------- Step    97000 ----- CPU =     49.8597 (sec) ----------------
Time     = 485000.000000 Temp     = 294.640461 Press    = -540.976482 
PotEng   = -10.042366 KinEng   = 0.876552 Lx       = 24.935266 
Ly       = 24.935266 Lz       = 24.935266 Density  = 0.987913 
---------------- Step    98000 ----- CPU =     50.3757 (sec) ----------------
Time     = 490000.000000 Temp     = 291.509876 Press    = 696.189310 
PotEng   = -10.074359 KinEng   = 0.867238 Lx       = 24.857705 
Ly       = 24.857705 Lz       = 24.857705 Density  = 0.997189 
---------------- Step    99000 ----- CPU =     50.8928 (sec) ----------------
Time     = 495000.000000 Temp     = 289.929864 Press    = 1202.649856 
PotEng   = -10.053532 KinEng   = 0.862538 Lx       = 24.872865 
Ly       = 24.872865 Lz       = 24.872865 Density  = 0.995367 
---------------- Step   100000 ----- CPU =     51.4141 (sec) ----------------
Time     = 500000.000000 Temp     = 288.278624 Press    = 405.723881 
PotEng   = -10.204378 KinEng   = 0.857625 Lx       = 24.744596 
Ly       = 24.744596 Lz       = 24.744596 Density  = 1.010926 
---------------- Step   101000 ----- CPU =     51.9193 (sec) ----------------
Time     = 505000.000000 Temp     = 289.454038 Press    = 680.613323 
PotEng   = -10.115016 KinEng   = 0.861122 Lx       = 24.808613 
Ly       = 24.808613 Lz       = 24.808613 Density  = 1.003120 
---------------- Step   102000 ----- CPU =     52.4398 (sec) ----------------
Time     = 510000.000000 Temp     = 303.783366 Press    = -830.101613 
PotEng   = -10.055327 KinEng   = 0.903752 Lx       = 24.819871 
Ly       = 24.819871 Lz       = 24.819871 Density  = 1.001756 
---------------- Step   103000 ----- CPU =     52.9465 (sec) ----------------
Time     = 515000.000000 Temp     = 298.119613 Press    = -951.584591 
PotEng   = -10.046499 KinEng   = 0.886902 Lx       = 24.915330 
Ly       = 24.915330 Lz       = 24.915330 Density  = 0.990286 
---------------- Step   104000 ----- CPU =     53.4599 (sec) ----------------
Time     = 520000.000000 Temp     = 283.013267 Press    = -227.619935 
PotEng   = -10.011113 KinEng   = 0.841961 Lx       = 24.910692 
Ly       = 24.910692 Lz       = 24.910692 Density  = 0.990839 
---------------- Step   105000 ----- CPU =     53.9775 (sec) ----------------
Time     = 525000.000000 Temp     = 302.551580 Press    = -1849.915998 
PotEng   = -10.118348 KinEng   = 0.900087 Lx       = 24.924580 
Ly       = 24.924580 Lz       = 24.924580 Density  = 0.989184 
---------------- Step   106000 ----- CPU =     54.4875 (sec) ----------------
Time     = 530000.000000 Temp     = 287.528514 Press    = -150.449805 
PotEng   = -10.049842 KinEng   = 0.855394 Lx       = 24.981819 
Ly       = 24.981819 Lz       = 24.981819 Density  = 0.982400 
---------------- Step   107000 ----- CPU =     54.9954 (sec) ----------------
Time     = 535000.000000 Temp     = 310.138541 Press    = 642.806023 
PotEng   = -10.140703 KinEng   = 0.922658 Lx       = 24.829301 
Ly       = 24.829301 Lz       = 24.829301 Density  = 1.000615 
---------------- Step   108000 ----- CPU =     55.5091 (sec) ----------------
Time     = 540000.000000 Temp     = 304.265042 Press    = -197.767212 
PotEng   = -10.026368 KinEng   = 0.905185 Lx       = 24.959734 
Ly       = 24.959734 Lz       = 24.959734 Density  = 0.985010 
---------------- Step   109000 ----- CPU =     56.0223 (sec) ----------------
Time     = 545000.000000 Temp     = 304.579470 Press    = -1139.044395 
PotEng   = -10.089224 KinEng   = 0.906120 Lx       = 24.837488 
Ly       = 24.837488 Lz       = 24.837488 Density  = 0.999626 
---------------- Step   110000 ----- CPU =     56.5458 (sec) ----------------
Time     = 550000.000000 Temp     = 291.136709 Press    = 242.036453 
PotEng   = -10.080826 KinEng   = 0.866128 Lx       = 24.825398 
Ly       = 24.825398 Lz       = 24.825398 Density  = 1.001087 
---------------- Step   111000 ----- CPU =     57.0547 (sec) ----------------
Time     = 555000.000000 Temp     = 298.627003 Press    = 997.444501 
PotEng   = -10.070261 KinEng   = 0.888412 Lx       = 24.805968 
Ly       = 24.805968 Lz       = 24.805968 Density  = 1.003441 
---------------- Step   112000 ----- CPU =     57.5674 (sec) ----------------
Time     = 560000.000000 Temp     = 286.281656 Press    = 142.876384 
PotEng   = -10.035906 KinEng   = 0.851685 Lx       = 24.874590 
Ly       = 24.874590 Lz       = 24.874590 Density  = 0.995160 
---------------- Step   113000 ----- CPU =     58.0873 (sec) ----------------
Time     = 565000.000000 Temp     = 293.984849 Press    = -1247.230259 
PotEng   = -10.012044 KinEng   = 0.874601 Lx       = 24.918823 
Ly       = 24.918823 Lz       = 24.918823 Density  = 0.989870 
---------------- Step   114000 ----- CPU =     58.5926 (sec) ----------------
Time     = 570000.000000 Temp     = 304.891020 Press    = 14.450628 
PotEng   = -10.086638 KinEng   = 0.907047 Lx       = 24.810193 
Ly       = 24.810193 Lz       = 24.810193 Density  = 1.002929 
---------------- Step   115000 ----- CPU =     59.1030 (sec) ----------------
Time     = 575000.000000 Temp     = 306.931716 Press    = -457.504294 
PotEng   = -10.078352 KinEng   = 0.913118 Lx       = 24.930018 
Ly       = 24.930018 Lz       = 24.930018 Density  = 0.988537 
---------------- Step   116000 ----- CPU =     59.6097 (sec) ----------------
Time     = 580000.000000 Temp     = 307.209748 Press    = 832.776718 
PotEng   = -10.101481 KinEng   = 0.913945 Lx       = 24.833297 
Ly       = 24.833297 Lz       = 24.833297 Density  = 1.000132 
---------------- Step   117000 ----- CPU =     60.1124 (sec) ----------------
Time     = 585000.000000 Temp     = 275.255229 Press    = -388.617119 
PotEng   = -10.058504 KinEng   = 0.818881 Lx       = 24.920632 
Ly       = 24.920632 Lz       = 24.920632 Density  = 0.989654 
---------------- Step   118000 ----- CPU =     60.6269 (sec) ----------------
Time     = 590000.000000 Temp     = 299.822843 Press    = -1261.613977 
PotEng   = -10.057057 KinEng   = 0.891969 Lx       = 24.839720 
Ly       = 24.839720 Lz       = 24.839720 Density  = 0.999357 
---------------- Step   119000 ----- CPU =     61.1385 (sec) ----------------
Time     = 595000.000000 Temp     = 304.787208 Press    = -166.809358 
PotEng   = -10.071095 KinEng   = 0.906738 Lx       = 24.811030 
Ly       = 24.811030 Lz       = 24.811030 Density  = 1.002827 
---------------- Step   120000 ----- CPU =     61.6498 (sec) ----------------
Time     = 600000.000000 Temp     = 292.462622 Press    = -455.549532 
PotEng   = -10.079966 KinEng   = 0.870073 Lx       = 24.825096 
Ly       = 24.825096 Lz       = 24.825096 Density  = 1.001124 
---------------- Step   121000 ----- CPU =     62.1698 (sec) ----------------
Time     = 605000.000000 Temp     = 290.483781 Press    = 394.463948 
PotEng   = -10.092101 KinEng   = 0.864186 Lx       = 24.848742 
Ly       = 24.848742 Lz       = 24.848742 Density  = 0.998268 
---------------- Step   122000 ----- CPU =     62.6769 (sec) ----------------
Time     = 610000.000000 Temp     = 322.547258 Press    = 365.380367 
PotEng   = -10.075924 KinEng   = 0.959574 Lx       = 24.882962 
Ly       = 24.882962 Lz       = 24.882962 Density  = 0.994155 
---------------- Step   123000 ----- CPU =     63.1956 (sec) ----------------
Time     = 615000.000000 Temp     = 297.409608 Press    = -310.659673 
PotEng   = -9.975178 KinEng   = 0.884790 Lx       = 24.954771 
Ly       = 24.954771 Lz       = 24.954771 Density  = 0.985598 
---------------- Step   124000 ----- CPU =     63.7104 (sec) ----------------
Time     = 620000.000000 Temp     = 318.123686 Press    = -408.284960 
PotEng   = -10.117098 KinEng   = 0.946414 Lx       = 24.799087 
Ly       = 24.799087 Lz       = 24.799087 Density  = 1.004277 
---------------- Step   125000 ----- CPU =     64.2111 (sec) ----------------
Time     = 625000.000000 Temp     = 289.656405 Press    = -1073.161752 
PotEng   = -10.072361 KinEng   = 0.861724 Lx       = 24.863240 
Ly       = 24.863240 Lz       = 24.863240 Density  = 0.996523 
---------------- Step   126000 ----- CPU =     64.7253 (sec) ----------------
Time     = 630000.000000 Temp     = 305.869098 Press    = 229.579131 
PotEng   = -10.041545 KinEng   = 0.909957 Lx       = 24.881542 
Ly       = 24.881542 Lz       = 24.881542 Density  = 0.994326 
---------------- Step   127000 ----- CPU =     65.2403 (sec) ----------------
Time     = 635000.000000 Temp     = 286.534008 Press    = 163.643869 
PotEng   = -10.113319 KinEng   = 0.852435 Lx       = 24.779899 
Ly       = 24.779899 Lz       = 24.779899 Density  = 1.006612 
---------------- Step   128000 ----- CPU =     65.7432 (sec) ----------------
Time     = 640000.000000 Temp     = 304.474991 Press    = 1219.908380 
PotEng   = -10.119261 KinEng   = 0.905809 Lx       = 24.790821 
Ly       = 24.790821 Lz       = 24.790821 Density  = 1.005282 
---------------- Step   129000 ----- CPU =     66.2462 (sec) ----------------
Time     = 645000.000000 Temp     = 279.128752 Press    = -698.181844 
PotEng   = -10.148363 KinEng   = 0.830405 Lx       = 24.884785 
Ly       = 24.884785 Lz       = 24.884785 Density  = 0.993937 
---------------- Step   130000 ----- CPU =     66.7552 (sec) ----------------
Time     = 650000.000000 Temp     = 290.925139 Press    = 207.034304 
PotEng   = -10.114746 KinEng   = 0.865499 Lx       = 24.839737 
Ly       = 24.839737 Lz       = 24.839737 Density  = 0.999354 
---------------- Step   131000 ----- CPU =     67.2655 (sec) ----------------
Time     = 655000.000000 Temp     = 299.835302 Press    = -1110.974949 
PotEng   = -10.004026 KinEng   = 0.892006 Lx       = 24.928433 
Ly       = 24.928433 Lz       = 24.928433 Density  = 0.988725 
---------------- Step   132000 ----- CPU =     67.7721 (sec) ----------------
Time     = 660000.000000 Temp     = 301.689601 Press    = -31.302009 
PotEng   = -9.998021 KinEng   = 0.897523 Lx       = 24.907513 
Ly       = 24.907513 Lz       = 24.907513 Density  = 0.991219 
---------------- Step   133000 ----- CPU =     68.2853 (sec) ----------------
Time     = 665000.000000 Temp     = 293.786280 Press    = -480.176993 
PotEng   = -10.070855 KinEng   = 0.874011 Lx       = 24.849031 
Ly       = 24.849031 Lz       = 24.849031 Density  = 0.998233 
---------------- Step   134000 ----- CPU =     68.8022 (sec) ----------------
Time     = 670000.000000 Temp     = 309.986941 Press    = -806.996478 
PotEng   = -10.040022 KinEng   = 0.922207 Lx       = 24.885785 
Ly       = 24.885785 Lz       = 24.885785 Density  = 0.993817 
---------------- Step   135000 ----- CPU =     69.3071 (sec) ----------------
Time     = 675000.000000 Temp     = 279.643391 Press    = 30.435977 
PotEng   = -10.063641 KinEng   = 0.831936 Lx       = 24.874722 
Ly       = 24.874722 Lz       = 24.874722 Density  = 0.995144 
---------------- Step   136000 ----- CPU =     69.8161 (sec) ----------------
Time     = 680000.000000 Temp     = 297.835029 Press    = 566.764610 
PotEng   = -10.082637 KinEng   = 0.886056 Lx       = 24.850224 
Ly       = 24.850224 Lz       = 24.850224 Density  = 0.998090 
---------------- Step   137000 ----- CPU =     70.3268 (sec) ----------------
Time     = 685000.000000 Temp     = 304.367444 Press    = -511.803657 
PotEng   = -10.023265 KinEng   = 0.905490 Lx       = 24.949592 
Ly       = 24.949592 Lz       = 24.949592 Density  = 0.986212 
---------------- Step   138000 ----- CPU =     70.8403 (sec) ----------------
Time     = 690000.000000 Temp     = 313.225166 Press    = -960.541110 
PotEng   = -10.101319 KinEng   = 0.931841 Lx       = 24.945958 
Ly       = 24.945958 Lz       = 24.945958 Density  = 0.986643 
---------------- Step   139000 ----- CPU =     71.3441 (sec) ----------------
Time     = 695000.000000 Temp     = 296.611496 Press    = -388.482722 
PotEng   = -10.108163 KinEng   = 0.882416 Lx       = 24.943908 
Ly       = 24.943908 Lz       = 24.943908 Density  = 0.986886 
---------------- Step   140000 ----- CPU =     71.8500 (sec) ----------------
Time     = 700000.000000 Temp     = 301.178294 Press    = 1229.657549 
PotEng   = -10.105473 KinEng   = 0.896002 Lx       = 24.782145 
Ly       = 24.782145 Lz       = 24.782145 Density  = 1.006338 
---------------- Step   141000 ----- CPU =     72.3681 (sec) ----------------
Time     = 705000.000000 Temp     = 296.180195 Press    = 447.562419 
PotEng   = -10.124024 KinEng   = 0.881133 Lx       = 24.783895 
Ly       = 24.783895 Lz       = 24.783895 Density  = 1.006125 
---------------- Step   142000 ----- CPU =     72.8898 (sec) ----------------
Time     = 710000.000000 Temp     = 308.153369 Press    = -1328.904946 
PotEng   = -10.043918 KinEng   = 0.916753 Lx       = 24.861573 
Ly       = 24.861573 Lz       = 24.861573 Density  = 0.996723 
---------------- Step   143000 ----- CPU =     73.4068 (sec) ----------------
Time     = 715000.000000 Temp     = 319.221793 Press    = 895.696752 
PotEng   = -10.093868 KinEng   = 0.949681 Lx       = 24.799799 
Ly       = 24.799799 Lz       = 24.799799 Density  = 1.004190 
---------------- Step   144000 ----- CPU =     73.9124 (sec) ----------------
Time     = 720000.000000 Temp     = 297.919001 Press    = 458.929335 
PotEng   = -10.115801 KinEng   = 0.886305 Lx       = 24.785912 
Ly       = 24.785912 Lz       = 24.785912 Density  = 1.005879 
---------------- Step   145000 ----- CPU =     74.4385 (sec) ----------------
Time     = 725000.000000 Temp     = 316.101781 Press    = 265.873226 
PotEng   = -10.071749 KinEng   = 0.940399 Lx       = 24.857634 
Ly       = 24.857634 Lz       = 24.857634 Density  = 0.997197 
---------------- Step   146000 ----- CPU =     74.9390 (sec) ----------------
Time     = 730000.000000 Temp     = 300.413009 Press    = -454.732720 
PotEng   = -10.053527 KinEng   = 0.893725 Lx       = 24.922729 
Ly       = 24.922729 Lz       = 24.922729 Density  = 0.989404 
---------------- Step   147000 ----- CPU =     75.4521 (sec) ----------------
Time     = 735000.000000 Temp     = 315.173088 Press    = 31.277772 
PotEng   = -10.089904 KinEng   = 0.937636 Lx       = 24.811132 
Ly       = 24.811132 Lz       = 24.811132 Density  = 1.002815 
---------------- Step   148000 ----- CPU =     75.9750 (sec) ----------------
Time     = 740000.000000 Temp     = 280.581483 Press    = 84.251627 
PotEng   = -10.048531 KinEng   = 0.834727 Lx       = 24.833114 
Ly       = 24.833114 Lz       = 24.833114 Density  = 1.000154 
---------------- Step   149000 ----- CPU =     76.4829 (sec) ----------------
Time     = 745000.000000 Temp     = 292.877506 Press    = -863.932655 
PotEng   = -10.070329 KinEng   = 0.871307 Lx       = 24.863726 
Ly       = 24.863726 Lz       = 24.863726 Density  = 0.996465 
---------------- Step   150000 ----- CPU =     76.9885 (sec) ----------------
Time     = 750000.000000 Temp     = 294.958645 Press    = -37.242208 
PotEng   = -10.112703 KinEng   = 0.877498 Lx       = 24.870206 
Ly       = 24.870206 Lz       = 24.870206 Density  = 0.995686 
---------------- Step   151000 ----- CPU =     77.4919 (sec) ----------------
Time     = 755000.000000 Temp     = 294.457568 Press    = 485.820629 
PotEng   = -10.110740 KinEng   = 0.876008 Lx       = 24.835607 
Ly       = 24.835607 Lz       = 24.835607 Density  = 0.999853 
---------------- Step   152000 ----- CPU =     78.0041 (sec) ----------------
Time     = 760000.000000 Temp     = 305.964812 Press    = 230.658943 
PotEng   = -10.040749 KinEng   = 0.910242 Lx       = 24.937585 
Ly       = 24.937585 Lz       = 24.937585 Density  = 0.987637 
---------------- Step   153000 ----- CPU =     78.5160 (sec) ----------------
Time     = 765000.000000 Temp     = 302.506388 Press    = -674.037431 
PotEng   = -10.044968 KinEng   = 0.899953 Lx       = 24.899836 
Ly       = 24.899836 Lz       = 24.899836 Density  = 0.992136 
---------------- Step   154000 ----- CPU =     79.0178 (sec) ----------------
Time     = 770000.000000 Temp     = 293.894180 Press    = 108.189310 
PotEng   = -10.077641 KinEng   = 0.874332 Lx       = 24.799638 
Ly       = 24.799638 Lz       = 24.799638 Density  = 1.004210 
---------------- Step   155000 ----- CPU =     79.5231 (sec) ----------------
Time     = 775000.000000 Temp     = 292.716399 Press    = 788.979872 
PotEng   = -10.001041 KinEng   = 0.870828 Lx       = 24.884130 
Ly       = 24.884130 Lz       = 24.884130 Density  = 0.994015 
---------------- Step   156000 ----- CPU =     80.0374 (sec) ----------------
Time     = 780000.000000 Temp     = 294.385386 Press    = 992.611859 
PotEng   = -10.128132 KinEng   = 0.875793 Lx       = 24.799604 
Ly       = 24.799604 Lz       = 24.799604 Density  = 1.004214 
---------------- Step   157000 ----- CPU =     80.5493 (sec) ----------------
Time     = 785000.000000 Temp     = 317.427321 Press    = 442.227678 
PotEng   = -10.050108 KinEng   = 0.944343 Lx       = 24.868393 
Ly       = 24.868393 Lz       = 24.868393 Density  = 0.995904 
---------------- Step   158000 ----- CPU =     81.0560 (sec) ----------------
Time     = 790000.000000 Temp     = 298.891716 Press    = 742.701691 
PotEng   = -10.061740 KinEng   = 0.889199 Lx       = 24.819677 
Ly       = 24.819677 Lz       = 24.819677 Density  = 1.001779 
---------------- Step   159000 ----- CPU =     81.5715 (sec) ----------------
Time     = 795000.000000 Temp     = 280.789571 Press    = 498.988713 
PotEng   = -10.120579 KinEng   = 0.835346 Lx       = 24.723811 
Ly       = 24.723811 Lz       = 24.723811 Density  = 1.013478 
---------------- Step   160000 ----- CPU =     82.0823 (sec) ----------------
Time     = 800000.000000 Temp     = 322.343800 Press    = 107.498299 
PotEng   = -10.105525 KinEng   = 0.958969 Lx       = 24.820065 
Ly       = 24.820065 Lz       = 24.820065 Density  = 1.001732 
---------------- Step   161000 ----- CPU =     82.5970 (sec) ----------------
Time     = 805000.000000 Temp     = 295.861200 Press    = 120.477073 
PotEng   = -10.105428 KinEng   = 0.880184 Lx       = 24.768797 
Ly       = 24.768797 Lz       = 24.768797 Density  = 1.007966 
---------------- Step   162000 ----- CPU =     83.1152 (sec) ----------------
Time     = 810000.000000 Temp     = 285.225267 Press    = -153.916688 
PotEng   = -10.143264 KinEng   = 0.848542 Lx       = 24.827275 
Ly       = 24.827275 Lz       = 24.827275 Density  = 1.000860 
---------------- Step   163000 ----- CPU =     83.6312 (sec) ----------------
Time     = 815000.000000 Temp     = 309.881750 Press    = 85.802073 
PotEng   = -10.121894 KinEng   = 0.921895 Lx       = 24.892527 
Ly       = 24.892527 Lz       = 24.892527 Density  = 0.993010 
---------------- Step   164000 ----- CPU =     84.1403 (sec) ----------------
Time     = 820000.000000 Temp     = 302.854095 Press    = 1180.019563 
PotEng   = -10.047435 KinEng   = 0.900987 Lx       = 24.749816 
Ly       = 24.749816 Lz       = 24.749816 Density  = 1.010287 
---------------- Step   165000 ----- CPU =     84.6536 (sec) ----------------
Time     = 825000.000000 Temp     = 301.977733 Press    = 93.788822 
PotEng   = -10.113506 KinEng   = 0.898380 Lx       = 24.884600 
Ly       = 24.884600 Lz       = 24.884600 Density  = 0.993959 
---------------- Step   166000 ----- CPU =     85.1657 (sec) ----------------
Time     = 830000.000000 Temp     = 302.953440 Press    = 1236.727828 
PotEng   = -10.046621 KinEng   = 0.901283 Lx       = 24.759739 
Ly       = 24.759739 Lz       = 24.759739 Density  = 1.009072 
---------------- Step   167000 ----- CPU =     85.6774 (sec) ----------------
Time     = 835000.000000 Temp     = 285.600818 Press    = 26.273430 
PotEng   = -10.030644 KinEng   = 0.849659 Lx       = 24.852852 
Ly       = 24.852852 Lz       = 24.852852 Density  = 0.997773 
---------------- Step   168000 ----- CPU =     86.2069 (sec) ----------------
Time     = 840000.000000 Temp     = 298.705782 Press    = -296.767803 
PotEng   = -10.076011 KinEng   = 0.888646 Lx       = 24.879055 
Ly       = 24.879055 Lz       = 24.879055 Density  = 0.994624 
---------------- Step   169000 ----- CPU =     86.7425 (sec) ----------------
Time     = 845000.000000 Temp     = 302.769999 Press    = -187.002616 
PotEng   = -10.119163 KinEng   = 0.900737 Lx       = 24.846563 
Ly       = 24.846563 Lz       = 24.846563 Density  = 0.998531 
---------------- Step   170000 ----- CPU =     87.2802 (sec) ----------------
Time     = 850000.000000 Temp     = 322.502571 Press    = -371.512925 
PotEng   = -10.062937 KinEng   = 0.959441 Lx       = 24.876847 
Ly       = 24.876847 Lz       = 24.876847 Density  = 0.994889 
---------------- Step   171000 ----- CPU =     87.7992 (sec) ----------------
Time     = 855000.000000 Temp     = 299.907248 Press    = 360.327196 
PotEng   = -10.117141 KinEng   = 0.892221 Lx       = 24.827919 
Ly       = 24.827919 Lz       = 24.827919 Density  = 1.000782 
---------------- Step   172000 ----- CPU =     88.2976 (sec) ----------------
Time     = 860000.000000 Temp     = 280.958706 Press    = 590.442928 
PotEng   = -10.095549 KinEng   = 0.835849 Lx       = 24.866550 
Ly       = 24.866550 Lz       = 24.866550 Density  = 0.996125 
---------------- Step   173000 ----- CPU =     88.8222 (sec) ----------------
Time     = 865000.000000 Temp     = 291.469964 Press    = 500.605310 
PotEng   = -10.037054 KinEng   = 0.867120 Lx       = 24.780367 
Ly       = 24.780367 Lz       = 24.780367 Density  = 1.006554 
---------------- Step   174000 ----- CPU =     89.3492 (sec) ----------------
Time     = 870000.000000 Temp     = 326.360146 Press    = 589.073806 
PotEng   = -10.075179 KinEng   = 0.970918 Lx       = 24.738077 
Ly       = 24.738077 Lz       = 24.738077 Density  = 1.011726 
---------------- Step   175000 ----- CPU =     89.8700 (sec) ----------------
Time     = 875000.000000 Temp     = 293.756657 Press    = -710.006366 
PotEng   = -10.121162 KinEng   = 0.873923 Lx       = 24.927390 
Ly       = 24.927390 Lz       = 24.927390 Density  = 0.988849 
---------------- Step   176000 ----- CPU =     90.3877 (sec) ----------------
Time     = 880000.000000 Temp     = 305.252929 Press    = -586.738641 
PotEng   = -10.021027 KinEng   = 0.908124 Lx       = 24.897450 
Ly       = 24.897450 Lz       = 24.897450 Density  = 0.992421 
---------------- Step   177000 ----- CPU =     90.8950 (sec) ----------------
Time     = 885000.000000 Temp     = 301.394278 Press    = -512.969217 
PotEng   = -10.093864 KinEng   = 0.896644 Lx       = 24.898367 
Ly       = 24.898367 Lz       = 24.898367 Density  = 0.992311 
---------------- Step   178000 ----- CPU =     91.3969 (sec) ----------------
Time     = 890000.000000 Temp     = 295.811252 Press    = -23.423306 
PotEng   = -10.087799 KinEng   = 0.880035 Lx       = 24.818327 
Ly       = 24.818327 Lz       = 24.818327 Density  = 1.001943 
---------------- Step   179000 ----- CPU =     91.9000 (sec) ----------------
Time     = 895000.000000 Temp     = 303.937754 Press    = 317.385058 
PotEng   = -10.122436 KinEng   = 0.904211 Lx       = 24.906944 
Ly       = 24.906944 Lz       = 24.906944 Density  = 0.991287 
---------------- Step   180000 ----- CPU =     92.4062 (sec) ----------------
Time     = 900000.000000 Temp     = 289.224458 Press    = -686.997810 
PotEng   = -10.065028 KinEng   = 0.860439 Lx       = 24.926878 
Ly       = 24.926878 Lz       = 24.926878 Density  = 0.988910 
---------------- Step   181000 ----- CPU =     92.9219 (sec) ----------------
Time     = 905000.000000 Temp     = 317.956158 Press    = 399.878957 
PotEng   = -10.064799 KinEng   = 0.945916 Lx       = 24.765289 
Ly       = 24.765289 Lz       = 24.765289 Density  = 1.008394 
---------------- Step   182000 ----- CPU =     93.4384 (sec) ----------------
Time     = 910000.000000 Temp     = 290.833595 Press    = -329.171770 
PotEng   = -10.123133 KinEng   = 0.865227 Lx       = 24.978337 
Ly       = 24.978337 Lz       = 24.978337 Density  = 0.982811 
---------------- Step   183000 ----- CPU =     93.9437 (sec) ----------------
Time     = 915000.000000 Temp     = 286.680415 Press    = -1091.576571 
PotEng   = -10.064113 KinEng   = 0.852871 Lx       = 24.910134 
Ly       = 24.910134 Lz       = 24.910134 Density  = 0.990906 
---------------- Step   184000 ----- CPU =     94.4599 (sec) ----------------
Time     = 920000.000000 Temp     = 300.810191 Press    = 119.242227 
PotEng   = -10.000637 KinEng   = 0.894907 Lx       = 24.888355 
Ly       = 24.888355 Lz       = 24.888355 Density  = 0.993509 
---------------- Step   185000 ----- CPU =     94.9826 (sec) ----------------
Time     = 925000.000000 Temp     = 317.500730 Press    = -117.348937 
PotEng   = -10.139941 KinEng   = 0.944561 Lx       = 24.816697 
Ly       = 24.816697 Lz       = 24.816697 Density  = 1.002140 
---------------- Step   186000 ----- CPU =     95.4999 (sec) ----------------
Time     = 930000.000000 Temp     = 294.909287 Press    = -769.478265 
PotEng   = -10.144381 KinEng   = 0.877352 Lx       = 24.881100 
Ly       = 24.881100 Lz       = 24.881100 Density  = 0.994379 
---------------- Step   187000 ----- CPU =     96.0142 (sec) ----------------
Time     = 935000.000000 Temp     = 306.381325 Press    = -1734.159101 
PotEng   = -9.986624 KinEng   = 0.911481 Lx       = 24.904012 
Ly       = 24.904012 Lz       = 24.904012 Density  = 0.991637 
---------------- Step   188000 ----- CPU =     96.5257 (sec) ----------------
Time     = 940000.000000 Temp     = 294.177297 Press    = -374.028493 
PotEng   = -10.103111 KinEng   = 0.875174 Lx       = 24.820950 
Ly       = 24.820950 Lz       = 24.820950 Density  = 1.001625 
---------------- Step   189000 ----- CPU =     97.0396 (sec) ----------------
Time     = 945000.000000 Temp     = 296.360674 Press    = -363.306945 
PotEng   = -10.068652 KinEng   = 0.881669 Lx       = 24.909415 
Ly       = 24.909415 Lz       = 24.909415 Density  = 0.990992 
---------------- Step   190000 ----- CPU =     97.5498 (sec) ----------------
Time     = 950000.000000 Temp     = 314.026491 Press    = 1087.716602 
PotEng   = -10.095865 KinEng   = 0.934225 Lx       = 24.800517 
Ly       = 24.800517 Lz       = 24.800517 Density  = 1.004103 
---------------- Step   191000 ----- CPU =     98.0734 (sec) ----------------
Time     = 955000.000000 Temp     = 291.821792 Press    = 929.112473 
PotEng   = -10.107822 KinEng   = 0.868166 Lx       = 24.805018 
Ly       = 24.805018 Lz       = 24.805018 Density  = 1.003557 
---------------- Step   192000 ----- CPU =     98.5947 (sec) ----------------
Time     = 960000.000000 Temp     = 286.534477 Press    = -136.505340 
PotEng   = -10.035804 KinEng   = 0.852437 Lx       = 24.798688 
Ly       = 24.798688 Lz       = 24.798688 Density  = 1.004325 
---------------- Step   193000 ----- CPU =     99.1026 (sec) ----------------
Time     = 965000.000000 Temp     = 287.350972 Press    = -26.409340 
PotEng   = -10.048912 KinEng   = 0.854866 Lx       = 24.841545 
Ly       = 24.841545 Lz       = 24.841545 Density  = 0.999136 
---------------- Step   194000 ----- CPU =     99.6199 (sec) ----------------
Time     = 970000.000000 Temp     = 285.864756 Press    = 191.145139 
PotEng   = -10.132957 KinEng   = 0.850444 Lx       = 24.878509 
Ly       = 24.878509 Lz       = 24.878509 Density  = 0.994689 
---------------- Step   195000 ----- CPU =    100.1357 (sec) ----------------
Time     = 975000.000000 Temp     = 292.951796 Press    = 369.203988 
PotEng   = -10.048799 KinEng   = 0.871528 Lx       = 24.795661 
Ly       = 24.795661 Lz       = 24.795661 Density  = 1.004693 
---------------- Step   196000 ----- CPU =    100.6522 (sec) ----------------
Time     = 980000.000000 Temp     = 279.042703 Press    = -305.107063 
PotEng   = -10.011508 KinEng   = 0.830149 Lx       = 24.812959 
Ly       = 24.812959 Lz       = 24.812959 Density  = 1.002593 
---------------- Step   197000 ----- CPU =    101.1646 (sec) ----------------
Time     = 985000.000000 Temp     = 297.862733 Press    = 453.920125 
PotEng   = -10.087610 KinEng   = 0.886138 Lx       = 24.802407 
Ly       = 24.802407 Lz       = 24.802407 Density  = 1.003874 
---------------- Step   198000 ----- CPU =    101.6812 (sec) ----------------
Time     = 990000.000000 Temp     = 304.246859 Press    = 119.114715 
PotEng   = -10.046902 KinEng   = 0.905131 Lx       = 24.907849 
Ly       = 24.907849 Lz       = 24.907849 Density  = 0.991178 
---------------- Step   199000 ----- CPU =    102.1893 (sec) ----------------
Time     = 995000.000000 Temp     = 294.283989 Press    = 57.920624 
PotEng   = -10.113234 KinEng   = 0.875491 Lx       = 24.824062 
Ly       = 24.824062 Lz       = 24.824062 Density  = 1.001249 
---------------- Step   200000 ----- CPU =    102.7118 (sec) ----------------
Time     = 1000000.000000 Temp     = 295.650862 Press    = -1323.340336 
PotEng   = -10.057419 KinEng   = 0.879558 Lx       = 24.821084 
Ly       = 24.821084 Lz       = 24.821084 Density  = 1.001609 
---------------- Step   201000 ----- CPU =    103.2205 (sec) ----------------
Time     = 1005000.000000 Temp     = 296.643957 Press    = 451.159106 
PotEng   = -10.009772 KinEng   = 0.882512 Lx       = 24.816061 
Ly       = 24.816061 Lz       = 24.816061 Density  = 1.002217 
---------------- Step   202000 ----- CPU =    103.7422 (sec) ----------------
Time     = 1010000.000000 Temp     = 301.656948 Press    = -417.240691 
PotEng   = -10.127973 KinEng   = 0.897426 Lx       = 24.862059 
Ly       = 24.862059 Lz       = 24.862059 Density  = 0.996665 
---------------- Step   203000 ----- CPU =    104.2449 (sec) ----------------
Time     = 1015000.000000 Temp     = 287.445242 Press    = 1179.209067 
PotEng   = -10.049150 KinEng   = 0.855146 Lx       = 24.737127 
Ly       = 24.737127 Lz       = 24.737127 Density  = 1.011842 
---------------- Step   204000 ----- CPU =    104.7522 (sec) ----------------
Time     = 1020000.000000 Temp     = 293.642718 Press    = 66.253037 
PotEng   = -10.117770 KinEng   = 0.873584 Lx       = 24.901221 
Ly       = 24.901221 Lz       = 24.901221 Density  = 0.991970 
---------------- Step   205000 ----- CPU =    105.2601 (sec) ----------------
Time     = 1025000.000000 Temp     = 309.538435 Press    = 21.099737 
PotEng   = -10.078226 KinEng   = 0.920873 Lx       = 24.875866 
Ly       = 24.875866 Lz       = 24.875866 Density  = 0.995006 
---------------- Step   206000 ----- CPU =    105.7662 (sec) ----------------
Time     = 1030000.000000 Temp     = 278.643337 Press    = -342.329621 
PotEng   = -10.071275 KinEng   = 0.828961 Lx       = 24.963368 
Ly       = 24.963368 Lz       = 24.963368 Density  = 0.984580 
---------------- Step   207000 ----- CPU =    106.2690 (sec) ----------------
Time     = 1035000.000000 Temp     = 319.459685 Press    = 832.632843 
PotEng   = -10.000249 KinEng   = 0.950389 Lx       = 24.857441 
Ly       = 24.857441 Lz       = 24.857441 Density  = 0.997221 
---------------- Step   208000 ----- CPU =    106.7818 (sec) ----------------
Time     = 1040000.000000 Temp     = 305.960003 Press    = 732.675826 
PotEng   = -10.041745 KinEng   = 0.910227 Lx       = 24.796510 
Ly       = 24.796510 Lz       = 24.796510 Density  = 1.004590 
---------------- Step   209000 ----- CPU =    107.3034 (sec) ----------------
Time     = 1045000.000000 Temp     = 312.954788 Press    = 798.264688 
PotEng   = -10.016170 KinEng   = 0.931037 Lx       = 24.733617 
Ly       = 24.733617 Lz       = 24.733617 Density  = 1.012273 
---------------- Step   210000 ----- CPU =    107.8171 (sec) ----------------
Time     = 1050000.000000 Temp     = 286.601312 Press    = 229.625071 
PotEng   = -10.087006 KinEng   = 0.852636 Lx       = 24.783401 
Ly       = 24.783401 Lz       = 24.783401 Density  = 1.006185 
---------------- Step   211000 ----- CPU =    108.3334 (sec) ----------------
Time     = 1055000.000000 Temp     = 289.695270 Press    = 25.524977 
PotEng   = -10.120367 KinEng   = 0.861840 Lx       = 24.823498 
Ly       = 24.823498 Lz       = 24.823498 Density  = 1.001317 
---------------- Step   212000 ----- CPU =    108.8550 (sec) ----------------
Time     = 1060000.000000 Temp     = 299.355214 Press    = -12.358882 
PotEng   = -10.009256 KinEng   = 0.890578 Lx       = 24.823926 
Ly       = 24.823926 Lz       = 24.823926 Density  = 1.001265 
---------------- Step   213000 ----- CPU =    109.3720 (sec) ----------------
Time     = 1065000.000000 Temp     = 306.327245 Press    = -274.164119 
PotEng   = -10.078778 KinEng   = 0.911320 Lx       = 24.827582 
Ly       = 24.827582 Lz       = 24.827582 Density  = 1.000823 
---------------- Step   214000 ----- CPU =    109.8898 (sec) ----------------
Time     = 1070000.000000 Temp     = 314.674964 Press    = 69.753088 
PotEng   = -10.067519 KinEng   = 0.936154 Lx       = 24.867641 
Ly       = 24.867641 Lz       = 24.867641 Density  = 0.995994 
---------------- Step   215000 ----- CPU =    110.4024 (sec) ----------------
Time     = 1075000.000000 Temp     = 293.280300 Press    = -324.172968 
PotEng   = -10.031364 KinEng   = 0.872505 Lx       = 24.885954 
Ly       = 24.885954 Lz       = 24.885954 Density  = 0.993797 
---------------- Step   216000 ----- CPU =    110.9173 (sec) ----------------
Time     = 1080000.000000 Temp     = 302.548899 Press    = 10.062005 
PotEng   = -9.996777 KinEng   = 0.900079 Lx       = 24.926226 
Ly       = 24.926226 Lz       = 24.926226 Density  = 0.988988 
---------------- Step   217000 ----- CPU =    111.4304 (sec) ----------------
Time     = 1085000.000000 Temp     = 304.010162 Press    = -356.060558 
PotEng   = -10.097882 KinEng   = 0.904427 Lx       = 24.907707 
Ly       = 24.907707 Lz       = 24.907707 Density  = 0.991195 
---------------- Step   218000 ----- CPU =    111.9350 (sec) ----------------
Time     = 1090000.000000 Temp     = 302.987847 Press    = 36.453797 
PotEng   = -10.050485 KinEng   = 0.901385 Lx       = 24.881822 
Ly       = 24.881822 Lz       = 24.881822 Density  = 0.994292 
---------------- Step   219000 ----- CPU =    112.4378 (sec) ----------------
Time     = 1095000.000000 Temp     = 297.545527 Press    = -1285.792634 
PotEng   = -10.102403 KinEng   = 0.885194 Lx       = 24.944317 
Ly       = 24.944317 Lz       = 24.944317 Density  = 0.986838 
---------------- Step   220000 ----- CPU =    112.9511 (sec) ----------------
Time     = 1100000.000000 Temp     = 290.623300 Press    = 521.972568 
PotEng   = -10.053766 KinEng   = 0.864601 Lx       = 24.736650 
Ly       = 24.736650 Lz       = 24.736650 Density  = 1.011901 
---------------- Step   221000 ----- CPU =    113.4577 (sec) ----------------
Time     = 1105000.000000 Temp     = 295.494256 Press    = -800.313595 
PotEng   = -10.101119 KinEng   = 0.879092 Lx       = 24.893398 
Ly       = 24.893398 Lz       = 24.893398 Density  = 0.992906 
---------------- Step   222000 ----- CPU =    113.9732 (sec) ----------------
Time     = 1110000.000000 Temp     = 299.702922 Press    = 42.278912 
PotEng   = -10.088170 KinEng   = 0.891613 Lx       = 24.794069 
Ly       = 24.794069 Lz       = 24.794069 Density  = 1.004887 
---------------- Step   223000 ----- CPU =    114.4938 (sec) ----------------
Time     = 1115000.000000 Temp     = 294.084287 Press    = 1106.375269 
PotEng   = -10.043946 KinEng   = 0.874897 Lx       = 24.770677 
Ly       = 24.770677 Lz       = 24.770677 Density  = 1.007736 
---------------- Step   224000 ----- CPU =    115.0123 (sec) ----------------
Time     = 1120000.000000 Temp     = 302.582572 Press    = 526.422768 
PotEng   = -10.120742 KinEng   = 0.900180 Lx       = 24.742318 
Ly       = 24.742318 Lz       = 24.742318 Density  = 1.011205 
---------------- Step   225000 ----- CPU =    115.5336 (sec) ----------------
Time     = 1125000.000000 Temp     = 336.251653 Press    = 282.456825 
PotEng   = -10.169465 KinEng   = 1.000345 Lx       = 24.737868 
Ly       = 24.737868 Lz       = 24.737868 Density  = 1.011751 
---------------- Step   226000 ----- CPU =    116.0460 (sec) ----------------
Time     = 1130000.000000 Temp     = 291.456446 Press    = 395.965549 
PotEng   = -10.090674 KinEng   = 0.867079 Lx       = 24.850789 
Ly       = 24.850789 Lz       = 24.850789 Density  = 0.998022 
---------------- Step   227000 ----- CPU =    116.5684 (sec) ----------------
Time     = 1135000.000000 Temp     = 300.217348 Press    = 602.563683 
PotEng   = -10.033809 KinEng   = 0.893143 Lx       = 24.851869 
Ly       = 24.851869 Lz       = 24.851869 Density  = 0.997892 
---------------- Step   228000 ----- CPU =    117.0830 (sec) ----------------
Time     = 1140000.000000 Temp     = 316.226588 Press    = 58.029961 
PotEng   = -10.118672 KinEng   = 0.940770 Lx       = 24.794353 
Ly       = 24.794353 Lz       = 24.794353 Density  = 1.004852 
---------------- Step   229000 ----- CPU =    117.5996 (sec) ----------------
Time     = 1145000.000000 Temp     = 295.613404 Press    = 758.213561 
PotEng   = -10.075508 KinEng   = 0.879446 Lx       = 24.724572 
Ly       = 24.724572 Lz       = 24.724572 Density  = 1.013384 
---------------- Step   230000 ----- CPU =    118.1183 (sec) ----------------
Time     = 1150000.000000 Temp     = 292.668769 Press    = 594.225459 
PotEng   = -10.137060 KinEng   = 0.870686 Lx       = 24.789786 
Ly       = 24.789786 Lz       = 24.789786 Density  = 1.005408 
---------------- Step   231000 ----- CPU =    118.6217 (sec) ----------------
Time     = 1155000.000000 Temp     = 295.019232 Press    = -427.349865 
PotEng   = -10.019811 KinEng   = 0.877679 Lx       = 24.882448 
Ly       = 24.882448 Lz       = 24.882448 Density  = 0.994217 
---------------- Step   232000 ----- CPU =    119.1347 (sec) ----------------
Time     = 1160000.000000 Temp     = 302.967722 Press    = 79.600555 
PotEng   = -10.026359 KinEng   = 0.901325 Lx       = 24.850963 
Ly       = 24.850963 Lz       = 24.850963 Density  = 0.998001 
---------------- Step   233000 ----- CPU =    119.6491 (sec) ----------------
Time     = 1165000.000000 Temp     = 312.462519 Press    = -62.908040 
PotEng   = -10.117813 KinEng   = 0.929572 Lx       = 24.878655 
Ly       = 24.878655 Lz       = 24.878655 Density  = 0.994672 
---------------- Step   234000 ----- CPU =    120.1622 (sec) ----------------
Time     = 1170000.000000 Temp     = 308.623823 Press    = -227.071881 
PotEng   = -10.115233 KinEng   = 0.918152 Lx       = 24.808556 
Ly       = 24.808556 Lz       = 24.808556 Density  = 1.003127 
---------------- Step   235000 ----- CPU =    120.6706 (sec) ----------------
Time     = 1175000.000000 Temp     = 297.526901 Press    = -997.975885 
PotEng   = -10.072160 KinEng   = 0.885139 Lx       = 24.900707 
Ly       = 24.900707 Lz       = 24.900707 Density  = 0.992032 
---------------- Step   236000 ----- CPU =    121.1783 (sec) ----------------
Time     = 1180000.000000 Temp     = 282.602348 Press    = 685.436692 
PotEng   = -10.018456 KinEng   = 0.840739 Lx       = 24.823079 
Ly       = 24.823079 Lz       = 24.823079 Density  = 1.001368 
---------------- Step   237000 ----- CPU =    121.6877 (sec) ----------------
Time     = 1185000.000000 Temp     = 280.547256 Press    = -401.437113 
PotEng   = -10.029946 KinEng   = 0.834625 Lx       = 24.842933 
Ly       = 24.842933 Lz       = 24.842933 Density  = 0.998969 
---------------- Step   238000 ----- CPU =    122.2042 (sec) ----------------
Time     = 1190000.000000 Temp     = 284.748080 Press    = -254.051390 
PotEng   = -10.091030 KinEng   = 0.847122 Lx       = 24.866818 
Ly       = 24.866818 Lz       = 24.866818 Density  = 0.996093 
---------------- Step   239000 ----- CPU =    122.7149 (sec) ----------------
Time     = 1195000.000000 Temp     = 316.810031 Press    = -1511.219584 
PotEng   = -10.049046 KinEng   = 0.942506 Lx       = 24.921716 
Ly       = 24.921716 Lz       = 24.921716 Density  = 0.989525 
---------------- Step   240000 ----- CPU =    123.2319 (sec) ----------------
Time     = 1200000.000000 Temp     = 302.601535 Press    = -274.695303 
PotEng   = -10.001757 KinEng   = 0.900236 Lx       = 24.807032 
Ly       = 24.807032 Lz       = 24.807032 Density  = 1.003312 
---------------- Step   241000 ----- CPU =    123.7529 (sec) ----------------
Time     = 1205000.000000 Temp     = 315.823799 Press    = -250.270486 
PotEng   = -10.031104 KinEng   = 0.939572 Lx       = 24.866122 
Ly       = 24.866122 Lz       = 24.866122 Density  = 0.996177 
---------------- Step   242000 ----- CPU =    124.2532 (sec) ----------------
Time     = 1210000.000000 Temp     = 310.658914 Press    = 153.471152 
PotEng   = -10.078848 KinEng   = 0.924207 Lx       = 24.866487 
Ly       = 24.866487 Lz       = 24.866487 Density  = 0.996133 
---------------- Step   243000 ----- CPU =    124.7606 (sec) ----------------
Time     = 1215000.000000 Temp     = 310.354215 Press    = -816.657581 
PotEng   = -10.031994 KinEng   = 0.923300 Lx       = 24.992337 
Ly       = 24.992337 Lz       = 24.992337 Density  = 0.981160 
---------------- Step   244000 ----- CPU =    125.2757 (sec) ----------------
Time     = 1220000.000000 Temp     = 301.045115 Press    = 400.273462 
PotEng   = -10.033479 KinEng   = 0.895606 Lx       = 24.854755 
Ly       = 24.854755 Lz       = 24.854755 Density  = 0.997544 
---------------- Step   245000 ----- CPU =    125.7905 (sec) ----------------
Time     = 1225000.000000 Temp     = 324.154755 Press    = 491.689719 
PotEng   = -10.046138 KinEng   = 0.964357 Lx       = 24.804501 
Ly       = 24.804501 Lz       = 24.804501 Density  = 1.003619 
---------------- Step   246000 ----- CPU =    126.3038 (sec) ----------------
Time     = 1230000.000000 Temp     = 287.526947 Press    = -415.903441 
PotEng   = -10.155281 KinEng   = 0.855389 Lx       = 24.929154 
Ly       = 24.929154 Lz       = 24.929154 Density  = 0.988639 
---------------- Step   247000 ----- CPU =    126.8028 (sec) ----------------
Time     = 1235000.000000 Temp     = 315.942795 Press    = -1121.283913 
PotEng   = -10.063105 KinEng   = 0.939926 Lx       = 24.989150 
Ly       = 24.989150 Lz       = 24.989150 Density  = 0.981536 
---------------- Step   248000 ----- CPU =    127.3069 (sec) ----------------
Time     = 1240000.000000 Temp     = 287.977349 Press    = -641.105319 
PotEng   = -10.043555 KinEng   = 0.856729 Lx       = 24.952381 
Ly       = 24.952381 Lz       = 24.952381 Density  = 0.985881 
---------------- Step   249000 ----- CPU =    127.8249 (sec) ----------------
Time     = 1245000.000000 Temp     = 312.836787 Press    = 9.694614 
PotEng   = -10.021258 KinEng   = 0.930686 Lx       = 24.835120 
Ly       = 24.835120 Lz       = 24.835120 Density  = 0.999912 
---------------- Step   250000 ----- CPU =    128.3270 (sec) ----------------
Time     = 1250000.000000 Temp     = 282.205886 Press    = -1088.141955 
PotEng   = -10.045306 KinEng   = 0.839559 Lx       = 24.919805 
Ly       = 24.919805 Lz       = 24.919805 Density  = 0.989752 
---------------- Step   251000 ----- CPU =    128.8466 (sec) ----------------
Time     = 1255000.000000 Temp     = 301.249742 Press    = 732.417478 
PotEng   = -9.992041 KinEng   = 0.896214 Lx       = 24.737237 
Ly       = 24.737237 Lz       = 24.737237 Density  = 1.011829 
---------------- Step   252000 ----- CPU =    129.3670 (sec) ----------------
Time     = 1260000.000000 Temp     = 311.456677 Press    = 442.097848 
PotEng   = -10.025346 KinEng   = 0.926580 Lx       = 24.864588 
Ly       = 24.864588 Lz       = 24.864588 Density  = 0.996361 
---------------- Step   253000 ----- CPU =    129.8803 (sec) ----------------
Time     = 1265000.000000 Temp     = 318.201937 Press    = 233.166589 
PotEng   = -10.093158 KinEng   = 0.946647 Lx       = 24.856792 
Ly       = 24.856792 Lz       = 24.856792 Density  = 0.997299 
---------------- Step   254000 ----- CPU =    130.3965 (sec) ----------------
Time     = 1270000.000000 Temp     = 310.943355 Press    = -295.708516 
PotEng   = -10.035857 KinEng   = 0.925053 Lx       = 24.836639 
Ly       = 24.836639 Lz       = 24.836639 Density  = 0.999728 
---------------- Step   255000 ----- CPU =    130.9110 (sec) ----------------
Time     = 1275000.000000 Temp     = 286.259059 Press    = -1023.093605 
PotEng   = -10.017554 KinEng   = 0.851617 Lx       = 24.951191 
Ly       = 24.951191 Lz       = 24.951191 Density  = 0.986022 
---------------- Step   256000 ----- CPU =    131.4180 (sec) ----------------
Time     = 1280000.000000 Temp     = 305.109745 Press    = 4.462925 
PotEng   = -10.114139 KinEng   = 0.907698 Lx       = 24.757880 
Ly       = 24.757880 Lz       = 24.757880 Density  = 1.009300 
---------------- Step   257000 ----- CPU =    131.9244 (sec) ----------------
Time     = 1285000.000000 Temp     = 306.083196 Press    = 296.317075 
PotEng   = -10.070065 KinEng   = 0.910594 Lx       = 24.802517 
Ly       = 24.802517 Lz       = 24.802517 Density  = 1.003860 
---------------- Step   258000 ----- CPU =    132.4320 (sec) ----------------
Time     = 1290000.000000 Temp     = 295.716879 Press    = -172.089607 
PotEng   = -10.075098 KinEng   = 0.879754 Lx       = 24.916963 
Ly       = 24.916963 Lz       = 24.916963 Density  = 0.990091 
---------------- Step   259000 ----- CPU =    132.9420 (sec) ----------------
Time     = 1295000.000000 Temp     = 320.779064 Press    = -165.695937 
PotEng   = -10.068983 KinEng   = 0.954314 Lx       = 24.873798 
Ly       = 24.873798 Lz       = 24.873798 Density  = 0.995255 
---------------- Step   260000 ----- CPU =    133.4489 (sec) ----------------
Time     = 1300000.000000 Temp     = 304.270052 Press    = -88.936947 
PotEng   = -10.098787 KinEng   = 0.905200 Lx       = 24.895911 
Ly       = 24.895911 Lz       = 24.895911 Density  = 0.992605 
---------------- Step   261000 ----- CPU =    133.9511 (sec) ----------------
Time     = 1305000.000000 Temp     = 301.400707 Press    = 376.594460 
PotEng   = -10.037371 KinEng   = 0.896664 Lx       = 24.879908 
Ly       = 24.879908 Lz       = 24.879908 Density  = 0.994522 
---------------- Step   262000 ----- CPU =    134.4630 (sec) ----------------
Time     = 1310000.000000 Temp     = 311.916263 Press    = 536.087572 
PotEng   = -9.995594 KinEng   = 0.927947 Lx       = 24.772374 
Ly       = 24.772374 Lz       = 24.772374 Density  = 1.007529 
---------------- Step   263000 ----- CPU =    134.9760 (sec) ----------------
Time     = 1315000.000000 Temp     = 293.549714 Press    = -165.936711 
PotEng   = -10.097189 KinEng   = 0.873307 Lx       = 24.905885 
Ly       = 24.905885 Lz       = 24.905885 Density  = 0.991413 
---------------- Step   264000 ----- CPU =    135.4912 (sec) ----------------
Time     = 1320000.000000 Temp     = 293.631583 Press    = 45.709269 
PotEng   = -10.053693 KinEng   = 0.873550 Lx       = 24.810653 
Ly       = 24.810653 Lz       = 24.810653 Density  = 1.002873 
---------------- Step   265000 ----- CPU =    136.0008 (sec) ----------------
Time     = 1325000.000000 Temp     = 283.290599 Press    = 2094.424365 
PotEng   = -10.059071 KinEng   = 0.842786 Lx       = 24.739193 
Ly       = 24.739193 Lz       = 24.739193 Density  = 1.011589 
---------------- Step   266000 ----- CPU =    136.4980 (sec) ----------------
Time     = 1330000.000000 Temp     = 297.455239 Press    = 173.495650 
PotEng   = -10.057194 KinEng   = 0.884926 Lx       = 24.875782 
Ly       = 24.875782 Lz       = 24.875782 Density  = 0.995017 
---------------- Step   267000 ----- CPU =    137.0141 (sec) ----------------
Time     = 1335000.000000 Temp     = 312.222065 Press    = 539.631186 
PotEng   = -10.104503 KinEng   = 0.928857 Lx       = 24.864524 
Ly       = 24.864524 Lz       = 24.864524 Density  = 0.996369 
---------------- Step   268000 ----- CPU =    137.5216 (sec) ----------------
Time     = 1340000.000000 Temp     = 302.139242 Press    = -330.309266 
PotEng   = -10.035591 KinEng   = 0.898861 Lx       = 24.852657 
Ly       = 24.852657 Lz       = 24.852657 Density  = 0.997797 
---------------- Step   269000 ----- CPU =    138.0292 (sec) ----------------
Time     = 1345000.000000 Temp     = 275.196364 Press    = 202.109073 
PotEng   = -10.065561 KinEng   = 0.818706 Lx       = 24.844748 
Ly       = 24.844748 Lz       = 24.844748 Density  = 0.998750 
---------------- Step   270000 ----- CPU =    138.5417 (sec) ----------------
Time     = 1350000.000000 Temp     = 290.161697 Press    = 1137.017513 
PotEng   = -10.033772 KinEng   = 0.863228 Lx       = 24.802369 
Ly       = 24.802369 Lz       = 24.802369 Density  = 1.003878 
---------------- Step   271000 ----- CPU =    139.0526 (sec) ----------------
Time     = 1355000.000000 Temp     = 303.966977 Press    = -1534.010665 
PotEng   = -9.987789 KinEng   = 0.904298 Lx       = 25.006957 
Ly       = 25.006957 Lz       = 25.006957 Density  = 0.979440 
---------------- Step   272000 ----- CPU =    139.5583 (sec) ----------------
Time     = 1360000.000000 Temp     = 295.424953 Press    = -392.911327 
PotEng   = -10.091024 KinEng   = 0.878886 Lx       = 24.844214 
Ly       = 24.844214 Lz       = 24.844214 Density  = 0.998814 
---------------- Step   273000 ----- CPU =    140.0738 (sec) ----------------
Time     = 1365000.000000 Temp     = 288.226217 Press    = 827.992862 
PotEng   = -10.082041 KinEng   = 0.857470 Lx       = 24.849078 
Ly       = 24.849078 Lz       = 24.849078 Density  = 0.998228 
---------------- Step   274000 ----- CPU =    140.5761 (sec) ----------------
Time     = 1370000.000000 Temp     = 274.236592 Press    = -612.173505 
PotEng   = -10.066928 KinEng   = 0.815851 Lx       = 24.961098 
Ly       = 24.961098 Lz       = 24.961098 Density  = 0.984849 
---------------- Step   275000 ----- CPU =    141.0962 (sec) ----------------
Time     = 1375000.000000 Temp     = 300.477672 Press    = 1349.663802 
PotEng   = -10.069902 KinEng   = 0.893918 Lx       = 24.790461 
Ly       = 24.790461 Lz       = 24.790461 Density  = 1.005325 
---------------- Step   276000 ----- CPU =    141.6081 (sec) ----------------
Time     = 1380000.000000 Temp     = 303.905793 Press    = 446.343560 
PotEng   = -10.088031 KinEng   = 0.904116 Lx       = 24.790434 
Ly       = 24.790434 Lz       = 24.790434 Density  = 1.005329 
---------------- Step   277000 ----- CPU =    142.1239 (sec) ----------------
Time     = 1385000.000000 Temp     = 290.705808 Press    = 616.427936 
PotEng   = -10.022894 KinEng   = 0.864846 Lx       = 24.809018 
Ly       = 24.809018 Lz       = 24.809018 Density  = 1.003071 
---------------- Step   278000 ----- CPU =    142.6371 (sec) ----------------
Time     = 1390000.000000 Temp     = 320.805502 Press    = 187.252485 
PotEng   = -10.125357 KinEng   = 0.954393 Lx       = 24.752178 
Ly       = 24.752178 Lz       = 24.752178 Density  = 1.009997 
---------------- Step   279000 ----- CPU =    143.1481 (sec) ----------------
Time     = 1395000.000000 Temp     = 285.504508 Press    = -518.181405 
PotEng   = -10.059524 KinEng   = 0.849373 Lx       = 24.951008 
Ly       = 24.951008 Lz       = 24.951008 Density  = 0.986044 
---------------- Step   280000 ----- CPU =    143.6431 (sec) ----------------
Time     = 1400000.000000 Temp     = 284.624385 Press    = -508.009109 
PotEng   = -9.978617 KinEng   = 0.846754 Lx       = 24.861284 
Ly       = 24.861284 Lz       = 24.861284 Density  = 0.996758 
---------------- Step   281000 ----- CPU =    144.1534 (sec) ----------------
Time     = 1405000.000000 Temp     = 296.402204 Press    = 926.911946 
PotEng   = -10.123363 KinEng   = 0.881793 Lx       = 24.786239 
Ly       = 24.786239 Lz       = 24.786239 Density  = 1.005839 
---------------- Step   282000 ----- CPU =    144.6682 (sec) ----------------
Time     = 1410000.000000 Temp     = 292.264609 Press    = 723.955182 
PotEng   = -10.012239 KinEng   = 0.869484 Lx       = 24.803662 
Ly       = 24.803662 Lz       = 24.803662 Density  = 1.003721 
---------------- Step   283000 ----- CPU =    145.1790 (sec) ----------------
Time     = 1415000.000000 Temp     = 306.484055 Press    = 600.019797 
PotEng   = -10.042014 KinEng   = 0.911786 Lx       = 24.838938 
Ly       = 24.838938 Lz       = 24.838938 Density  = 0.999451 
---------------- Step   284000 ----- CPU =    145.6939 (sec) ----------------
Time     = 1420000.000000 Temp     = 313.301418 Press    = -37.409384 
PotEng   = -10.044402 KinEng   = 0.932068 Lx       = 24.843299 
Ly       = 24.843299 Lz       = 24.843299 Density  = 0.998925 
---------------- Step   285000 ----- CPU =    146.2257 (sec) ----------------
Time     = 1425000.000000 Temp     = 301.768232 Press    = -404.624305 
PotEng   = -10.026622 KinEng   = 0.897757 Lx       = 24.946546 
Ly       = 24.946546 Lz       = 24.946546 Density  = 0.986573 
---------------- Step   286000 ----- CPU =    146.7550 (sec) ----------------
Time     = 1430000.000000 Temp     = 290.453705 Press    = 7.342742 
PotEng   = -10.116762 KinEng   = 0.864096 Lx       = 24.847967 
Ly       = 24.847967 Lz       = 24.847967 Density  = 0.998362 
---------------- Step   287000 ----- CPU =    147.2909 (sec) ----------------
[...]
---------------- Step   433000 ----- CPU =    222.0972 (sec) ----------------
Time     = 7165000.000000 Temp     = 306.396930 Press    = 420.603617 
PotEng   = -10.040097 KinEng   = 0.911527 Lx       = 24.777505 
Ly       = 24.777505 Lz       = 24.777505 Density  = 1.006903 
---------------- Step   434000 ----- CPU =    222.6036 (sec) ----------------
Time     = 7170000.000000 Temp     = 294.795490 Press    = -519.052403 
PotEng   = -10.056778 KinEng   = 0.877013 Lx       = 24.904712 
Ly       = 24.904712 Lz       = 24.904712 Density  = 0.991553 
---------------- Step   435000 ----- CPU =    223.1123 (sec) ----------------
Time     = 7175000.000000 Temp     = 286.944292 Press    = 208.669033 
PotEng   = -10.077202 KinEng   = 0.853656 Lx       = 24.872911 
Ly       = 24.872911 Lz       = 24.872911 Density  = 0.995361 
---------------- Step   436000 ----- CPU =    223.6233 (sec) ----------------
Time     = 7180000.000000 Temp     = 278.331455 Press    = 850.632034 
PotEng   = -10.081586 KinEng   = 0.828033 Lx       = 24.782730 
Ly       = 24.782730 Lz       = 24.782730 Density  = 1.006267 
---------------- Step   437000 ----- CPU =    224.1336 (sec) ----------------
Time     = 7185000.000000 Temp     = 295.636007 Press    = 17.476204 
PotEng   = -10.011639 KinEng   = 0.879514 Lx       = 24.847370 
Ly       = 24.847370 Lz       = 24.847370 Density  = 0.998434 
---------------- Step   438000 ----- CPU =    224.6427 (sec) ----------------
Time     = 7190000.000000 Temp     = 301.850964 Press    = 782.416013 
PotEng   = -10.061325 KinEng   = 0.898003 Lx       = 24.820963 
Ly       = 24.820963 Lz       = 24.820963 Density  = 1.001624 
---------------- Step   439000 ----- CPU =    225.1609 (sec) ----------------
Time     = 7195000.000000 Temp     = 327.448639 Press    = -731.903954 
PotEng   = -10.041504 KinEng   = 0.974156 Lx       = 24.916871 
Ly       = 24.916871 Lz       = 24.916871 Density  = 0.990102 
---------------- Step   440000 ----- CPU =    225.6791 (sec) ----------------
Time     = 7200000.000000 Temp     = 309.971471 Press    = 1696.985327 
PotEng   = -10.053572 KinEng   = 0.922161 Lx       = 24.783367 
Ly       = 24.783367 Lz       = 24.783367 Density  = 1.006189 
---------------- Step   441000 ----- CPU =    226.1871 (sec) ----------------
Time     = 7205000.000000 Temp     = 308.759471 Press    = 694.864068 
PotEng   = -10.089025 KinEng   = 0.918556 Lx       = 24.793634 
Ly       = 24.793634 Lz       = 24.793634 Density  = 1.004940 
---------------- Step   442000 ----- CPU =    226.6941 (sec) ----------------
Time     = 7210000.000000 Temp     = 289.107543 Press    = -1421.766813 
PotEng   = -10.049532 KinEng   = 0.860092 Lx       = 24.919167 
Ly       = 24.919167 Lz       = 24.919167 Density  = 0.989829 
---------------- Step   443000 ----- CPU =    227.2015 (sec) ----------------
Time     = 7215000.000000 Temp     = 295.627662 Press    = 1144.836870 
PotEng   = -10.039377 KinEng   = 0.879489 Lx       = 24.820667 
Ly       = 24.820667 Lz       = 24.820667 Density  = 1.001660 
---------------- Step   444000 ----- CPU =    227.7090 (sec) ----------------
Time     = 7220000.000000 Temp     = 309.255945 Press    = 257.905791 
PotEng   = -10.069458 KinEng   = 0.920033 Lx       = 24.819563 
Ly       = 24.819563 Lz       = 24.819563 Density  = 1.001793 
---------------- Step   445000 ----- CPU =    228.2190 (sec) ----------------
Time     = 7225000.000000 Temp     = 306.492934 Press    = -567.902332 
PotEng   = -10.087178 KinEng   = 0.911813 Lx       = 24.943808 
Ly       = 24.943808 Lz       = 24.943808 Density  = 0.986898 
---------------- Step   446000 ----- CPU =    228.7285 (sec) ----------------
Time     = 7230000.000000 Temp     = 311.518720 Press    = -98.482574 
PotEng   = -10.063390 KinEng   = 0.926765 Lx       = 24.952167 
Ly       = 24.952167 Lz       = 24.952167 Density  = 0.985906 
---------------- Step   447000 ----- CPU =    229.2393 (sec) ----------------
Time     = 7235000.000000 Temp     = 305.926278 Press    = 373.935676 
PotEng   = -10.095503 KinEng   = 0.910127 Lx       = 24.893495 
Ly       = 24.893495 Lz       = 24.893495 Density  = 0.992894 
---------------- Step   448000 ----- CPU =    229.7512 (sec) ----------------
Time     = 7240000.000000 Temp     = 282.627313 Press    = 284.008450 
PotEng   = -10.079460 KinEng   = 0.840813 Lx       = 24.797348 
Ly       = 24.797348 Lz       = 24.797348 Density  = 1.004488 
---------------- Step   449000 ----- CPU =    230.2628 (sec) ----------------
Time     = 7245000.000000 Temp     = 301.436411 Press    = -63.200401 
PotEng   = -10.074401 KinEng   = 0.896770 Lx       = 24.864813 
Ly       = 24.864813 Lz       = 24.864813 Density  = 0.996334 
---------------- Step   450000 ----- CPU =    230.7709 (sec) ----------------
Time     = 7250000.000000 Temp     = 263.074259 Press    = -145.139795 
PotEng   = -10.097656 KinEng   = 0.782643 Lx       = 24.839142 
Ly       = 24.839142 Lz       = 24.839142 Density  = 0.999426 
---------------- Step   451000 ----- CPU =    231.2820 (sec) ----------------
Time     = 7255000.000000 Temp     = 299.459991 Press    = 378.442486 
PotEng   = -10.124070 KinEng   = 0.890890 Lx       = 24.865824 
Ly       = 24.865824 Lz       = 24.865824 Density  = 0.996212 
---------------- Step   452000 ----- CPU =    231.7988 (sec) ----------------
Time     = 7260000.000000 Temp     = 282.531500 Press    = -1478.071523 
PotEng   = -10.013371 KinEng   = 0.840528 Lx       = 24.932779 
Ly       = 24.932779 Lz       = 24.932779 Density  = 0.988208 
---------------- Step   453000 ----- CPU =    232.3069 (sec) ----------------
Time     = 7265000.000000 Temp     = 312.904857 Press    = -1099.738610 
PotEng   = -10.044627 KinEng   = 0.930888 Lx       = 24.836708 
Ly       = 24.836708 Lz       = 24.836708 Density  = 0.999720 
---------------- Step   454000 ----- CPU =    232.8257 (sec) ----------------
Time     = 7270000.000000 Temp     = 290.695097 Press    = 284.348792 
PotEng   = -10.165629 KinEng   = 0.864814 Lx       = 24.792499 
Ly       = 24.792499 Lz       = 24.792499 Density  = 1.005078 
---------------- Step   455000 ----- CPU =    233.3482 (sec) ----------------
Time     = 7275000.000000 Temp     = 281.006468 Press    = -323.690918 
PotEng   = -10.068407 KinEng   = 0.835991 Lx       = 24.898899 
Ly       = 24.898899 Lz       = 24.898899 Density  = 0.992248 
---------------- Step   456000 ----- CPU =    233.8908 (sec) ----------------
Time     = 7280000.000000 Temp     = 297.700513 Press    = 348.624917 
PotEng   = -10.104486 KinEng   = 0.885655 Lx       = 24.854441 
Ly       = 24.854441 Lz       = 24.854441 Density  = 0.997582 
---------------- Step   457000 ----- CPU =    234.4459 (sec) ----------------
Time     = 7285000.000000 Temp     = 306.191999 Press    = 343.059326 
PotEng   = -10.055786 KinEng   = 0.910918 Lx       = 24.760796 
Ly       = 24.760796 Lz       = 24.760796 Density  = 1.008943 
---------------- Step   458000 ----- CPU =    234.9670 (sec) ----------------
Time     = 7290000.000000 Temp     = 314.752457 Press    = 182.318302 
PotEng   = -10.006246 KinEng   = 0.936385 Lx       = 24.838999 
Ly       = 24.838999 Lz       = 24.838999 Density  = 0.999444 
---------------- Step   459000 ----- CPU =    235.4809 (sec) ----------------
Time     = 7295000.000000 Temp     = 313.706780 Press    = -87.719041 
PotEng   = -10.021415 KinEng   = 0.933274 Lx       = 24.850876 
Ly       = 24.850876 Lz       = 24.850876 Density  = 0.998011 
---------------- Step   460000 ----- CPU =    235.9944 (sec) ----------------
Time     = 7300000.000000 Temp     = 308.471401 Press    = 510.974748 
PotEng   = -10.016849 KinEng   = 0.917699 Lx       = 24.862640 
Ly       = 24.862640 Lz       = 24.862640 Density  = 0.996595 
---------------- Step   461000 ----- CPU =    236.5112 (sec) ----------------
Time     = 7305000.000000 Temp     = 312.161219 Press    = -158.359988 
PotEng   = -10.080598 KinEng   = 0.928676 Lx       = 24.900107 
Ly       = 24.900107 Lz       = 24.900107 Density  = 0.992103 
---------------- Step   462000 ----- CPU =    237.0249 (sec) ----------------
Time     = 7310000.000000 Temp     = 283.088999 Press    = -630.619146 
PotEng   = -10.038199 KinEng   = 0.842186 Lx       = 24.925343 
Ly       = 24.925343 Lz       = 24.925343 Density  = 0.989093 
---------------- Step   463000 ----- CPU =    237.5332 (sec) ----------------
Time     = 7315000.000000 Temp     = 303.208471 Press    = 930.446882 
PotEng   = -10.080381 KinEng   = 0.902042 Lx       = 24.853429 
Ly       = 24.853429 Lz       = 24.853429 Density  = 0.997704 
---------------- Step   464000 ----- CPU =    238.0427 (sec) ----------------
Time     = 7320000.000000 Temp     = 287.915818 Press    = 769.604826 
PotEng   = -10.012625 KinEng   = 0.856546 Lx       = 24.763536 
Ly       = 24.763536 Lz       = 24.763536 Density  = 1.008608 
---------------- Step   465000 ----- CPU =    238.5576 (sec) ----------------
Time     = 7325000.000000 Temp     = 309.174811 Press    = -948.851389 
PotEng   = -10.095585 KinEng   = 0.919791 Lx       = 24.936133 
Ly       = 24.936133 Lz       = 24.936133 Density  = 0.987809 
---------------- Step   466000 ----- CPU =    239.0672 (sec) ----------------
Time     = 7330000.000000 Temp     = 288.218602 Press    = -28.905030 
PotEng   = -9.977152 KinEng   = 0.857447 Lx       = 24.980750 
Ly       = 24.980750 Lz       = 24.980750 Density  = 0.982526 
---------------- Step   467000 ----- CPU =    239.5728 (sec) ----------------
Time     = 7335000.000000 Temp     = 298.512301 Press    = -433.103950 
PotEng   = -10.110480 KinEng   = 0.888071 Lx       = 24.879390 
Ly       = 24.879390 Lz       = 24.879390 Density  = 0.994584 
---------------- Step   468000 ----- CPU =    240.0754 (sec) ----------------
Time     = 7340000.000000 Temp     = 301.865339 Press    = -340.625021 
PotEng   = -10.061264 KinEng   = 0.898046 Lx       = 24.831285 
Ly       = 24.831285 Lz       = 24.831285 Density  = 1.000375 
---------------- Step   469000 ----- CPU =    240.5738 (sec) ----------------
Time     = 7345000.000000 Temp     = 299.130885 Press    = 987.282382 
PotEng   = -10.059948 KinEng   = 0.889911 Lx       = 24.884435 
Ly       = 24.884435 Lz       = 24.884435 Density  = 0.993979 
---------------- Step   470000 ----- CPU =    241.0847 (sec) ----------------
Time     = 7350000.000000 Temp     = 308.709092 Press    = 24.071795 
PotEng   = -10.085045 KinEng   = 0.918406 Lx       = 24.863861 
Ly       = 24.863861 Lz       = 24.863861 Density  = 0.996448 
---------------- Step   471000 ----- CPU =    241.5860 (sec) ----------------
Time     = 7355000.000000 Temp     = 309.804984 Press    = -1119.806232 
PotEng   = -10.114396 KinEng   = 0.921666 Lx       = 24.946585 
Ly       = 24.946585 Lz       = 24.946585 Density  = 0.986568 
---------------- Step   472000 ----- CPU =    242.0973 (sec) ----------------
Time     = 7360000.000000 Temp     = 305.951167 Press    = -177.248951 
PotEng   = -10.094059 KinEng   = 0.910201 Lx       = 24.796574 
Ly       = 24.796574 Lz       = 24.796574 Density  = 1.004582 
---------------- Step   473000 ----- CPU =    242.6049 (sec) ----------------
Time     = 7365000.000000 Temp     = 313.145332 Press    = 208.608596 
PotEng   = -10.024547 KinEng   = 0.931604 Lx       = 24.852850 
Ly       = 24.852850 Lz       = 24.852850 Density  = 0.997773 
---------------- Step   474000 ----- CPU =    243.1088 (sec) ----------------
Time     = 7370000.000000 Temp     = 297.611311 Press    = 575.931073 
PotEng   = -10.108999 KinEng   = 0.885390 Lx       = 24.861324 
Ly       = 24.861324 Lz       = 24.861324 Density  = 0.996754 
---------------- Step   475000 ----- CPU =    243.6135 (sec) ----------------
Time     = 7375000.000000 Temp     = 287.641236 Press    = -775.414198 
PotEng   = -10.086963 KinEng   = 0.855729 Lx       = 24.880291 
Ly       = 24.880291 Lz       = 24.880291 Density  = 0.994476 
---------------- Step   476000 ----- CPU =    244.1317 (sec) ----------------
Time     = 7380000.000000 Temp     = 310.250273 Press    = -378.688827 
PotEng   = -10.021683 KinEng   = 0.922991 Lx       = 24.861736 
Ly       = 24.861736 Lz       = 24.861736 Density  = 0.996704 
---------------- Step   477000 ----- CPU =    244.6498 (sec) ----------------
Time     = 7385000.000000 Temp     = 294.162230 Press    = -704.375853 
PotEng   = -10.030228 KinEng   = 0.875129 Lx       = 24.950942 
Ly       = 24.950942 Lz       = 24.950942 Density  = 0.986052 
---------------- Step   478000 ----- CPU =    245.1678 (sec) ----------------
Time     = 7390000.000000 Temp     = 289.292517 Press    = -361.436658 
PotEng   = -10.023250 KinEng   = 0.860642 Lx       = 25.044592 
Ly       = 25.044592 Lz       = 25.044592 Density  = 0.975032 
---------------- Step   479000 ----- CPU =    245.6720 (sec) ----------------
Time     = 7395000.000000 Temp     = 301.955596 Press    = -641.277372 
PotEng   = -10.088788 KinEng   = 0.898314 Lx       = 24.934819 
Ly       = 24.934819 Lz       = 24.934819 Density  = 0.987966 
---------------- Step   480000 ----- CPU =    246.1772 (sec) ----------------
Time     = 7400000.000000 Temp     = 303.614062 Press    = 815.019188 
PotEng   = -10.049347 KinEng   = 0.903248 Lx       = 24.844206 
Ly       = 24.844206 Lz       = 24.844206 Density  = 0.998815 
---------------- Step   481000 ----- CPU =    246.6918 (sec) ----------------
Time     = 7405000.000000 Temp     = 316.948343 Press    = -579.041417 
PotEng   = -10.080945 KinEng   = 0.942918 Lx       = 24.793580 
Ly       = 24.793580 Lz       = 24.793580 Density  = 1.004946 
---------------- Step   482000 ----- CPU =    247.2039 (sec) ----------------
Time     = 7410000.000000 Temp     = 304.131101 Press    = 757.429169 
PotEng   = -10.025011 KinEng   = 0.904786 Lx       = 24.910994 
Ly       = 24.910994 Lz       = 24.910994 Density  = 0.990803 
---------------- Step   483000 ----- CPU =    247.7006 (sec) ----------------
Time     = 7415000.000000 Temp     = 301.981774 Press    = 111.581597 
PotEng   = -10.050613 KinEng   = 0.898392 Lx       = 24.942601 
Ly       = 24.942601 Lz       = 24.942601 Density  = 0.987041 
---------------- Step   484000 ----- CPU =    248.2185 (sec) ----------------
Time     = 7420000.000000 Temp     = 325.172973 Press    = 775.129977 
PotEng   = -10.094993 KinEng   = 0.967386 Lx       = 24.813934 
Ly       = 24.813934 Lz       = 24.813934 Density  = 1.002475 
---------------- Step   485000 ----- CPU =    248.7337 (sec) ----------------
Time     = 7425000.000000 Temp     = 309.332917 Press    = 1109.181723 
PotEng   = -10.069953 KinEng   = 0.920262 Lx       = 24.866456 
Ly       = 24.866456 Lz       = 24.866456 Density  = 0.996137 
---------------- Step   486000 ----- CPU =    249.2505 (sec) ----------------
Time     = 7430000.000000 Temp     = 294.929035 Press    = 979.244085 
PotEng   = -10.026151 KinEng   = 0.877410 Lx       = 24.899132 
Ly       = 24.899132 Lz       = 24.899132 Density  = 0.992220 
---------------- Step   487000 ----- CPU =    249.7562 (sec) ----------------
Time     = 7435000.000000 Temp     = 325.822659 Press    = 79.893315 
PotEng   = -10.040712 KinEng   = 0.969319 Lx       = 24.885330 
Ly       = 24.885330 Lz       = 24.885330 Density  = 0.993872 
---------------- Step   488000 ----- CPU =    250.2637 (sec) ----------------
Time     = 7440000.000000 Temp     = 302.192124 Press    = -989.205186 
PotEng   = -10.042966 KinEng   = 0.899018 Lx       = 24.909402 
Ly       = 24.909402 Lz       = 24.909402 Density  = 0.990993 
---------------- Step   489000 ----- CPU =    250.7809 (sec) ----------------
Time     = 7445000.000000 Temp     = 286.542675 Press    = -908.443901 
PotEng   = -10.063014 KinEng   = 0.852461 Lx       = 24.872941 
Ly       = 24.872941 Lz       = 24.872941 Density  = 0.995358 
---------------- Step   490000 ----- CPU =    251.2931 (sec) ----------------
Time     = 7450000.000000 Temp     = 290.580729 Press    = -1042.618361 
PotEng   = -10.073635 KinEng   = 0.864474 Lx       = 24.982410 
Ly       = 24.982410 Lz       = 24.982410 Density  = 0.982330 
---------------- Step   491000 ----- CPU =    251.8025 (sec) ----------------
Time     = 7455000.000000 Temp     = 290.514683 Press    = -243.900736 
PotEng   = -10.046431 KinEng   = 0.864278 Lx       = 24.820394 
Ly       = 24.820394 Lz       = 24.820394 Density  = 1.001693 
---------------- Step   492000 ----- CPU =    252.3031 (sec) ----------------
Time     = 7460000.000000 Temp     = 307.435829 Press    = 201.332177 
PotEng   = -10.114328 KinEng   = 0.914618 Lx       = 24.800593 
Ly       = 24.800593 Lz       = 24.800593 Density  = 1.004094 
---------------- Step   493000 ----- CPU =    252.8193 (sec) ----------------
Time     = 7465000.000000 Temp     = 285.046263 Press    = 641.311162 
PotEng   = -10.037054 KinEng   = 0.848009 Lx       = 24.752967 
Ly       = 24.752967 Lz       = 24.752967 Density  = 1.009901 
---------------- Step   494000 ----- CPU =    253.3421 (sec) ----------------
Time     = 7470000.000000 Temp     = 289.435964 Press    = -263.034527 
PotEng   = -10.082717 KinEng   = 0.861069 Lx       = 24.846417 
Ly       = 24.846417 Lz       = 24.846417 Density  = 0.998549 
---------------- Step   495000 ----- CPU =    253.8464 (sec) ----------------
Time     = 7475000.000000 Temp     = 327.915818 Press    = 1049.482180 
PotEng   = -10.063644 KinEng   = 0.975546 Lx       = 24.873275 
Ly       = 24.873275 Lz       = 24.873275 Density  = 0.995317 
---------------- Step   496000 ----- CPU =    254.3625 (sec) ----------------
Time     = 7480000.000000 Temp     = 298.268127 Press    = 562.807600 
PotEng   = -10.020914 KinEng   = 0.887344 Lx       = 24.887860 
Ly       = 24.887860 Lz       = 24.887860 Density  = 0.993569 
---------------- Step   497000 ----- CPU =    254.8848 (sec) ----------------
Time     = 7485000.000000 Temp     = 286.479429 Press    = 210.518292 
PotEng   = -10.006303 KinEng   = 0.852273 Lx       = 24.819428 
Ly       = 24.819428 Lz       = 24.819428 Density  = 1.001810 
---------------- Step   498000 ----- CPU =    255.3950 (sec) ----------------
Time     = 7490000.000000 Temp     = 310.547204 Press    = -170.283607 
PotEng   = -10.034453 KinEng   = 0.923874 Lx       = 24.856038 
Ly       = 24.856038 Lz       = 24.856038 Density  = 0.997390 
---------------- Step   499000 ----- CPU =    255.9110 (sec) ----------------
Time     = 7495000.000000 Temp     = 303.145379 Press    = -786.983082 
PotEng   = -10.069412 KinEng   = 0.901854 Lx       = 24.937324 
Ly       = 24.937324 Lz       = 24.937324 Density  = 0.987668 
---------------- Step   500000 ----- CPU =    256.4390 (sec) ----------------
Time     = 7500000.000000 Temp     = 289.575999 Press    = 781.634010 
PotEng   = -10.065280 KinEng   = 0.861485 Lx       = 24.772251 
Ly       = 24.772251 Lz       = 24.772251 Density  = 1.007544 
Loop time of 256.439 on 8 procs for 500000 steps with 512 atoms

Performance: 842.305 ns/day, 0.028 hours/ns, 1949.780 timesteps/s
99.9% CPU use with 8 MPI tasks x no OpenMP threads

MPI task timing breakdown:
Section |  min time  |  avg time  |  max time  |%varavg| %total
---------------------------------------------------------------
Pair    | 206.85     | 207.42     | 208.52     |   3.7 | 80.88
Neigh   | 5.4831     | 5.4908     | 5.5002     |   0.3 |  2.14
Comm    | 34.486     | 35.514     | 36.087     |   8.3 | 13.85
Output  | 0.24981    | 0.25507    | 0.29164    |   2.7 |  0.10
Modify  | 6.2979     | 6.4045     | 6.4658     |   2.0 |  2.50
Other   |            | 1.358      |            |       |  0.53

Nlocal:    64 ave 68 max 62 min
Histogram: 1 4 0 1 0 0 1 0 0 1
Nghost:    468.5 ave 472 max 465 min
Histogram: 1 0 3 0 1 0 0 1 0 2
Neighs:    0 ave 0 max 0 min
Histogram: 8 0 0 0 0 0 0 0 0 0
FullNghs:  2170.5 ave 2304 max 2066 min
Histogram: 1 1 0 3 0 1 0 0 1 1

Total # of neighbors = 17364
Ave neighs/atom = 33.9141
Neighbor list builds = 33038
Dangerous builds = 0
System init for write_data ...
Total wall time: 0:12:49
