LAMMPS data file via write_data, version 4 Jan 2019, timestep = 4000000

512 atoms
1 atom types

2.4675604656736638e-01 2.4588243953437718e+01 xlo xhi
2.4675604656736638e-01 2.4588243953437718e+01 ylo yhi
2.4675604656736638e-01 2.4588243953437718e+01 zlo zhi

Masses

1 18.0153

Atoms # atomic

235 1 2.0474129306659394e+00 2.9232499913457906e+00 6.3691822429038192e+00 30 -56 153
83 1 1.5423245344602514e+00 5.6909364185732336e+00 6.3677935716436611e+00 38 -1 5
425 1 1.8760263005296107e+01 1.2339944111182957e+01 6.5405382793294731e+00 72 36 -7
184 1 6.0019485519246469e+00 7.2889584046208844e-01 8.3599815082320710e+00 -4 5 35
126 1 1.6053735206023980e+01 2.9896851099907078e+00 3.4351536089056967e+00 -36 -25 -31
470 1 1.9114025294988863e+01 7.0887253128220369e+00 2.0386175887516260e+00 19 -33 -131
90 1 8.7730678903792718e+00 1.0334602981156104e+01 2.3487465654989115e+00 -49 -40 -78
228 1 4.8058841098263496e+00 3.2267201260614633e+00 7.5354820730190433e+00 -39 20 17
311 1 1.4981104214303216e+00 7.0121739309942388e+00 1.4439627298207336e+00 11 -52 17
106 1 8.9907540668941994e+00 9.2076362517973109e+00 5.2611833313607539e+00 15 -17 0
251 1 2.1769429090638489e+01 8.1476092770603810e+00 2.0192487294203847e+00 -34 30 -52
238 1 1.0581692266864355e+01 6.9129963614132768e+00 2.4991315273148293e+00 45 17 -15
61 1 1.1392650655361683e+01 9.4634326673081048e+00 3.7339641710680209e+00 90 -57 101
393 1 2.2205472475162686e+01 4.9287452124552829e+00 3.6797758117065218e+00 95 38 -91
209 1 1.4067827181574259e+01 8.3089252891974130e+00 3.0851104923309212e+00 -1 8 -40
22 1 1.5583548244657495e+01 2.7138885529774188e+00 7.2175001805189360e+00 -2 -67 70
194 1 2.0250765306507965e+01 3.0227581674524662e+00 3.6237960240575231e+00 39 109 5
243 1 8.2552257786879202e-01 1.9668884899954893e+00 1.8761935702648596e+00 21 -35 -14
119 1 1.0875890552093763e+01 4.8795723921699103e+00 7.6028655461953045e+00 46 71 93
78 1 2.2268164547553155e+01 7.7833686774820663e+00 6.7914221034680020e+00 -14 -59 -24
135 1 1.0329663192316303e+01 2.5568466239659418e+00 2.7465391970358466e+00 -3 52 -62
151 1 9.5445817373965678e+00 4.9462644137297236e+00 3.6791775812644230e+00 -42 -39 1
365 1 2.1688213910816465e+01 1.0650218516895858e+01 3.3758910917788243e+00 -8 77 -41
419 1 6.9976338917653305e+00 3.9332429470220638e+00 3.4456463077567059e+00 47 9 17
404 1 2.1551323516165297e+01 1.1475573800249506e+01 7.3224414078373510e+00 -17 132 51
272 1 1.8047900172596599e+01 6.8435329619219667e+00 6.2515199655780318e+00 -15 -8 103
43 1 6.6463026036805708e+00 9.9628308622128738e+00 6.6108716857348870e+00 -3 -6 10
185 1 1.2288134495207119e+01 6.1452272050715373e-01 4.0765329123837990e+00 -1 17 -8
127 1 4.4477712003070513e+00 1.1354267748315284e+01 5.8837218068243144e+00 55 66 80
38 1 2.3126466618341595e+01 1.0177173203927897e+01 5.5699672827258917e+00 -20 51 -21
466 1 1.2854301432738392e+01 5.4382303039408564e+00 1.0514607510917586e+00 110 -27 -27
332 1 6.2967373469713541e+00 8.2949211307059194e+00 2.1034044836419010e+00 11 -30 -107
362 1 1.8089319928855879e+01 1.0124142265627425e+01 4.6524913712778790e+00 -56 -11 -64
489 1 2.2313318673381165e+01 5.5379927473735133e+00 1.0778708195807285e+00 71 191 -43
102 1 7.2760055298021928e+00 1.2926393065707471e+00 4.3085909709101289e+00 29 -8 34
108 1 1.4284817286343158e+01 1.0529631045182725e+01 6.7123319960975687e+00 41 -33 30
322 1 4.3519069020184107e+00 4.4011260140810711e+00 3.4565827224563495e+00 19 56 -6
281 1 1.3772008190570956e+01 4.2449703092113342e+00 3.3620125581734888e+00 38 -36 108
230 1 9.3973087502902821e+00 1.4059842750486111e+00 6.3537593546108448e+00 1 -32 -139
476 1 4.7662184533148562e+00 1.8661043992503739e+00 5.0469445135308071e+00 -35 -11 -55
337 1 7.9929973725824262e+00 1.2177306263878506e+01 7.6279106373876191e+00 31 7 -44
507 1 1.4527124783518019e+01 1.0661070145230692e+01 1.1644236073498200e+00 -62 31 -15
91 1 1.9025211895100632e+01 2.8580730635980061e+00 6.0438032652006326e+00 -24 7 22
441 1 2.0666431866629646e+00 7.6115339778989197e+00 4.5800724644766628e+00 1 -68 -22
137 1 4.5341109688077355e+00 5.7908738393443953e+00 6.0940692235608491e+00 1 -28 61
113 1 9.0799735057648441e+00 6.3673614573936037e+00 6.0881710875049810e+00 -53 18 88
130 1 2.2928393305134886e+01 1.3775331007739511e+00 5.8735413884747141e+00 -23 -35 12
53 1 1.2521106962639454e+01 1.1777826027115871e+01 5.3506193487242069e+00 53 103 145
10 1 1.1666058577965925e+01 3.2594281699318630e+00 5.3712586077393896e+00 -78 59 -24
372 1 1.4914458080331965e+01 9.7656913310223226e-01 5.1069647019622257e+00 14 5 11
447 1 2.4377686165080942e+01 3.0345719361203676e+00 4.2876361782209189e+00 -10 -114 26
145 1 5.7446941203245512e+00 1.0890152079905924e+01 1.3228160064573544e+00 29 3 -54
427 1 2.1506968994329782e+01 3.7883793286287473e+00 7.1549353377578955e+00 130 -15 28
464 1 2.3961560350693976e+01 7.0234295131662972e+00 3.3238603936931672e+00 18 22 -20
237 1 8.6772841324804730e+00 7.0740287996902629e-01 1.7331955211811487e+00 15 -28 -12
473 1 1.5263360271036351e+01 1.0628854664197240e+01 3.9659803567021723e+00 -42 -45 67
308 1 4.1242584526541712e+00 6.7344441624311937e+00 1.5454575434010620e+00 46 103 60
202 1 1.1621384003929958e+00 9.7093995124538885e+00 9.9202386393935760e-01 36 90 -25
399 1 1.6676889594548232e+01 4.4634485760428557e+00 5.6164569107911770e+00 25 63 -12
324 1 1.9637029695658011e+01 4.1916813685279566e+00 1.2296714980249837e+00 0 -57 79
73 1 1.7254100883570150e+01 2.7298509366006294e+00 1.0478101888555338e+00 -58 3 23
334 1 2.6191976891334585e+00 1.2291772049953638e+01 7.6028925148753865e+00 40 67 19
379 1 1.9082944246867990e+00 1.0194596174860795e+01 6.0125269312271321e+00 146 1 68
5 1 2.0321011566445691e+01 1.1864528652021040e+00 6.7736657517767873e-01 46 40 0
352 1 1.7125739498421282e+01 7.7366729389972928e+00 3.6055716443319485e+00 47 -39 -69
167 1 1.6914830225380523e+01 9.3913067091056988e+00 7.1895758966615579e+00 35 -22 0
293 1 1.7290033649710061e+01 8.1328368738433490e+00 3.6335032458471733e-01 3 125 56
407 1 2.0568009958508821e+01 6.1112661292301551e+00 5.4265845934903059e+00 19 4 63
51 1 1.9211848157099912e+01 1.2258112342117794e+01 2.5270657094722568e+00 29 -5 -48
269 1 6.5398702675916081e+00 4.4700757005452383e+00 6.6309655985758087e-01 23 -36 7
481 1 6.0212864905375705e+00 8.1321080838857132e+00 4.7712952894738718e+00 39 -4 -26
278 1 8.7517698722920265e+00 7.7000821231544068e+00 5.0605987691312104e-01 -92 -100 48
495 1 1.4568216278437411e+01 6.4423623041020974e+00 5.0214071529528423e+00 -35 4 -66
406 1 2.8915047574482017e-01 1.1293491051761599e+01 3.2614571129755938e+00 39 145 5
229 1 3.3828924111866940e+00 1.9020081896806245e+00 2.1366103182882834e+00 50 21 22
180 1 1.7552592012894458e+01 1.0705693718439525e+01 8.8550190487114278e-01 3 284 -26
200 1 1.4409063109269660e+01 7.7885490586303181e+00 7.2870652896530164e+00 63 90 -12
304 1 1.1413218977252424e+01 1.1206491988298907e+01 1.1645903721853690e+00 -26 -46 110
294 1 2.8070460503924957e+00 8.1356596191633628e+00 8.0826475395998951e+00 32 33 -75
284 1 9.8091455017239113e+00 9.0593847499451048e+00 7.9331955981942937e+00 -85 -59 -6
381 1 6.8649863177036146e+00 6.0627188075362088e+00 7.6697812073945535e+00 25 -112 37
335 1 2.1671989769142751e+01 6.5760833569727373e-01 3.4932159278036390e+00 19 -26 89
182 1 7.8683273892552963e+00 3.3043256953975910e+00 8.0677623800149565e+00 114 54 52
403 1 3.2832475711832867e+00 1.1703937419744722e+01 4.2559328065320062e-01 -69 50 20
30 1 1.1968593772474799e+01 7.4671352493505774e+00 8.3547097750612629e+00 -88 5 -13
344 1 1.4501093149138327e+01 7.7908810492500411e+00 2.9399269334007605e-01 35 -50 6
452 1 3.7830885415665183e-01 4.3353192489292640e+00 6.2509543539794765e-01 13 -8 87
54 1 2.7320122997315166e+00 9.1938173358064095e+00 1.5685274645699291e+01 -1 16 50
340 1 4.4873268505232664e+00 5.1555902188067293e+00 1.2707972642985693e+01 52 46 20
46 1 1.3432252149794024e+01 3.8188399759676526e+00 8.3607703792986534e+00 43 -12 62
432 1 1.8646635504181537e+00 2.0251555372370040e+00 1.3339926275119108e+01 35 -52 9
97 1 1.6445868163622809e+01 3.2856924377351437e+00 1.1727370261914205e+01 24 58 -7
146 1 1.3241544457257170e+01 7.7756382315960577e+00 1.5495852780058256e+01 -11 -12 12
107 1 4.8378264181142674e+00 3.7660410253104679e+00 1.0126765204220776e+01 -29 48 -133
105 1 1.7524658849204709e+01 7.1106434187981806e+00 1.3269840154299459e+01 8 89 8
134 1 1.9802922420435387e+01 6.4836137103862601e-01 1.5520418133704057e+01 -82 -17 15
264 1 7.9959536715257444e+00 1.0884386479275816e+01 1.1805869395398672e+01 -108 30 33
349 1 2.1933365162972056e+01 8.7316908632924246e+00 1.3686008313666157e+01 1 21 52
206 1 1.5613714065355396e+01 6.5027181185894936e+00 9.4461465715616910e+00 19 -86 29
174 1 2.4192904471904452e+01 8.0265303492802644e+00 1.0946850087856523e+01 14 94 -28
374 1 1.6311062977960247e+00 3.9628227768575979e+00 9.8155085355055540e+00 -11 41 -5
192 1 4.2545537035431487e+00 1.1888857742281216e+01 1.2367525854648328e+01 -84 68 -49
124 1 1.9219389531370684e+01 5.8174039001863616e+00 1.1662936606616469e+01 -52 158 -24
149 1 9.6782657038300623e+00 5.8121149511427213e+00 1.1663833087563511e+01 -50 56 1
197 1 5.5222288727652780e+00 8.7919991834834512e+00 1.5413708149025100e+01 5 46 47
391 1 1.1017467358677171e+01 1.0382684648423252e+01 1.1893533887196458e+01 -83 -27 -1
236 1 5.6986770635252810e+00 8.3931587023287513e+00 8.7445665003115494e+00 32 78 58
275 1 1.7515582566969343e+01 5.2542344052756320e+00 1.5237588519879171e+01 26 -11 26
140 1 1.5172497647923825e+01 9.2810383727000865e+00 1.3830050514086132e+01 -66 29 -10
305 1 1.4206508706519388e+01 4.9178141365124945e+00 1.0891776757734927e+01 19 94 29
316 1 2.7596595163276612e+00 3.2404644056275052e+00 1.5946634782912298e+01 38 112 68
276 1 2.4766978863145273e+00 8.9406364106517096e+00 1.1031213688250631e+01 39 164 -25
256 1 5.1561517075634304e+00 3.2683488561736707e+00 1.4638735001370426e+01 33 15 -34
510 1 2.4147932610556893e+01 1.0185258256097949e+01 1.3598974024915300e+01 -57 142 35
141 1 1.9745620903686977e+01 3.4426837085657516e+00 1.2900161086546889e+01 91 77 -7
116 1 4.2710212793325715e+00 6.9185652966761901e-01 1.3575095926492937e+01 -46 5 4
312 1 1.0977421546946804e+01 4.0163711313467312e+00 1.4793651169481874e+01 -3 16 16
398 1 2.1397979249279853e+01 1.0598447264219515e+00 1.3175516613434326e+01 -55 -29 9
69 1 1.4897111389341202e+01 1.6513600833091564e+00 1.5584348916551029e+01 -23 -1 1
29 1 9.2020779967464534e+00 2.5013836874170683e+00 1.3184640612582232e+01 64 -42 -34
475 1 2.1890083517427712e+01 6.4913301082012422e+00 1.0836161270109342e+01 14 -8 -10
80 1 2.3289078837670175e+01 3.0938729730198706e+00 1.2975040049356588e+01 29 48 9
59 1 1.1776393162499792e+01 7.9788986357811238e+00 1.0972982704434733e+01 46 -98 55
77 1 1.8904051029525213e+01 1.0642456929884295e+01 8.8424345487251923e+00 57 -28 11
241 1 1.2673815389415942e+01 2.2902666916686898e+00 1.0903023043447716e+01 -3 -109 -23
354 1 7.1792043464875341e+00 4.4472097702084490e+00 1.1878533850119849e+01 10 51 19
357 1 2.2365685095560526e+01 1.9340895396069950e+00 1.0387494721577413e+01 16 -15 -6
166 1 1.6491095022213846e+00 1.1394267787637746e+01 1.2032063117405787e+01 37 -6 -20
394 1 2.2527251292531666e+01 1.0111334108741604e+01 9.6085994229185836e+00 -112 0 -25
75 1 1.8218050608118137e+01 6.4628988765724484e+00 9.0650381562111821e+00 6 31 1
448 1 7.5173069619515136e+00 2.7637299815836465e+00 1.5763142146977239e+01 8 -44 -17
434 1 2.0516455882165289e+01 8.2687847286709797e+00 8.9592966099713927e+00 52 -28 -80
289 1 5.7425395481672208e+00 9.6287978042863944e+00 1.1037098388725875e+01 -20 -11 -49
261 1 4.0173503468010818e-01 1.1073735222150495e+01 1.6459272153141551e+01 7 31 -122
405 1 1.2283235000328251e+01 6.0651007005352966e+00 1.3401730195538438e+01 -22 -6 57
4 1 1.9449092030421085e+01 1.1765787680080598e+01 1.5196699726949861e+01 23 -85 7
459 1 1.8135913843406673e+01 2.8118010474960515e+00 8.8579167045888276e+00 56 -21 51
451 1 2.0193831114447416e+01 9.1085820361244600e+00 1.5912629043983783e+01 66 41 -18
205 1 1.6582029175293951e+00 1.5278621832593358e+00 1.0445588959252486e+01 -28 -20 -63
225 1 1.4650045697249526e+01 4.6050835623613109e+00 1.3658820032702709e+01 18 80 19
42 1 7.9238926664127689e+00 8.8867641014417220e+00 1.3865299319536263e+01 2 64 -69
290 1 1.2921342791037427e+01 1.1052011080160415e+01 1.3798941302906940e+01 -12 -88 -69
455 1 9.5956190998269779e+00 6.8050244229571781e+00 1.4423558400410615e+01 53 98 26
492 1 1.2890484679924040e+01 2.3892887980582218e+00 1.3801527148654685e+01 -3 -13 58
303 1 1.5633780196350582e+00 4.7951545532269986e+00 1.2638357469755409e+01 28 2 201
28 1 2.0173257042223511e+01 3.7497093772665817e+00 1.5738933962215393e+01 15 37 26
418 1 1.8083463097118194e+01 9.7724690420630775e+00 1.3784975334577535e+01 -75 -66 -17
408 1 4.0707683583665242e+00 8.1370257722968375e+00 1.3153286856296010e+01 -147 28 61
392 1 1.1006977736762278e+00 1.0677977688533151e+01 9.2584210271773575e+00 20 12 -63
98 1 2.3565675945666445e+01 2.0589471702140543e+00 1.6025403957334092e+01 64 74 -1
133 1 1.8754614621204425e+01 1.3080955706602118e+00 1.1259469202926523e+01 -32 69 -46
214 1 1.0289042834693326e+01 3.6495949072028173e+00 9.9149067073359696e+00 15 95 -1
158 1 9.8871569901614063e+00 1.1200125765837866e+01 9.4899830443861717e+00 -64 56 -87
477 1 2.4514893412213393e+01 6.7719279782266923e+00 8.5072326917765189e+00 38 -6 35
376 1 4.3889910189032486e+00 1.0843135138684610e+00 1.0767220565034320e+01 -77 -7 -6
509 1 1.4427061566636853e+01 8.8719420492261776e+00 1.1093274829481297e+01 114 38 -80
121 1 6.7522682415449005e+00 7.3773403536453692e+00 1.1935793456220411e+01 -4 3 1
41 1 1.2580197589541229e+00 7.3122149097148448e+00 1.3603390308510216e+01 69 -7 35
273 1 3.4139600692849781e+00 6.3063184297780701e+00 1.0131809725274078e+01 75 178 125
454 1 2.2936608995870120e+01 5.8520072597371984e+00 1.3638240016106900e+01 -52 54 19
76 1 7.9032416048263583e+00 5.5845204160261677e+00 1.6109033946540379e+01 25 18 16
44 1 2.3207833728945392e+01 4.6281676929075539e+00 9.1956058606084010e+00 -22 -36 95
212 1 8.2316493443486536e+00 7.6172864624010099e+00 9.7146317439343139e+00 -10 -47 -33
191 1 1.7133175183493144e+01 2.6821241156067930e+00 1.4210860501850787e+01 43 -17 -22
70 1 8.3422059689095498e+00 1.6924795711769598e+00 1.0493882711060589e+01 88 -5 9
493 1 1.4435314466146082e+01 1.1062304177342320e+01 9.4623469248443683e+00 -45 96 45
213 1 1.9145310593991510e+01 1.1344638882800968e+01 1.1440760815475093e+01 -46 -7 16
101 1 1.2039911047280999e+01 1.0174067657305882e+01 1.6353016545417766e+01 -27 -20 67
1 1 2.1807653124946039e+01 1.2067447094195169e+01 1.1484148550230719e+01 -55 -41 61
415 1 1.6074293983744639e+01 1.1803580038034568e+01 1.5069669402630483e+01 -52 -49 21
240 1 3.2317055179913601e-01 6.5361131162738708e+00 1.6340012771588921e+01 -219 135 64
175 1 1.6293836394211315e+01 5.2621461505121969e-01 9.2031022532383187e+00 38 -2 -24
423 1 1.4854208713461230e+01 8.0505749331911103e-01 1.1622939409122742e+01 -19 6 56
86 1 1.5101860863987987e+01 5.5793097554850517e+00 1.6328709437524910e+01 -41 -58 85
198 1 5.2164410269576944e+00 1.1401970191578014e+01 1.6311229296976304e+01 -29 46 9
239 1 2.2754800990101774e+01 4.6996024295441892e+00 1.6438937160110331e+01 46 -26 5
341 1 1.8699878893997351e+01 8.0635628313644823e+00 2.0600267322136713e+01 41 -35 70
50 1 1.0584658814950554e+01 9.2376619709623782e+00 2.3414851683857815e+01 7 34 -35
234 1 1.2315033333440009e+01 7.6448479140345134e+00 2.2410667294037427e+01 69 -15 22
356 1 8.2791536515583974e+00 9.0631674448892223e+00 1.6785909591724447e+01 -64 3 -3
131 1 1.9340853149723047e+00 5.4144538318299169e+00 2.2766940072607341e+01 21 -36 -18
60 1 1.5140740940612622e+01 1.0978985316418477e+01 1.8064636625764589e+01 -64 -19 57
179 1 7.0616962191108703e+00 3.6401843416203503e+00 2.1786449736364396e+01 -80 -71 -46
482 1 1.3645527694360384e+01 3.6117866240687793e+00 2.3211614873180512e+01 9 64 33
463 1 2.7516880703232482e+00 2.8721151847173271e-01 2.2268108725741246e+01 -42 27 -42
309 1 2.1748095223183903e+01 4.6855824967221453e+00 1.9008271523106771e+01 59 65 -49
512 1 1.5332758244653865e+01 8.1797626319319132e+00 1.7464954161418198e+01 -25 -32 96
426 1 1.3418314113759388e+01 1.1128420936077404e+01 2.2822383083599433e+01 85 -5 63
351 1 4.8426222806615824e+00 9.7245600719502043e+00 2.3051736574230087e+01 27 -29 -67
207 1 1.3425193075860330e+01 3.8294150616698084e+00 1.7282857928559991e+01 33 -29 -2
333 1 1.8951404260301741e+00 7.3215998067757324e+00 2.0414501344779875e+01 20 38 36
383 1 1.9061841000950359e+01 1.2329987233948247e+01 2.0153775132887603e+01 -44 89 -23
12 1 6.3102105063866984e+00 7.2168800264747457e+00 1.7509652552823447e+01 57 -44 66
79 1 2.0793492851161691e+01 1.1570301499615869e+01 2.2660897218342750e+01 -5 -100 98
147 1 9.8343730038817032e+00 1.1716266352831708e+00 2.2666073416016612e+01 -31 27 92
255 1 1.8692455129950364e+01 1.9970658885927421e+00 1.7690638200130419e+01 -124 6 83
93 1 1.5821121469642767e+01 4.9269588792808285e+00 2.2041597603160405e+01 -34 -8 10
436 1 5.5448489526666460e+00 1.8519543982929108e+00 1.9884904188519165e+01 50 74 24
163 1 1.6843143685818166e+01 4.0657816719260200e+00 1.8467660577833264e+01 -38 -56 7
438 1 2.2129246718231737e+01 9.2802718045634691e+00 2.3562938790955322e+01 29 -22 -56
35 1 2.4071176983910725e+00 5.4802837992395039e+00 1.7962461370068830e+01 -49 22 -52
193 1 1.1958724635270443e+00 3.8707892826645680e+00 2.0092533440983125e+01 -81 23 -9
164 1 9.4470941146659797e+00 1.1406850315641888e+01 2.2440024949944220e+01 50 18 135
186 1 1.5827900032518654e+01 6.5880599001377345e+00 1.9535195545690389e+01 -22 179 39
325 1 2.7793344304027983e+00 9.8891654447601809e+00 2.1134817176762429e+01 -83 41 30
506 1 1.6022066423743823e+01 2.8143475831872661e-01 2.0787426496873717e+01 -14 -24 -3
416 1 1.0285379242848879e+01 3.6486715449717795e+00 2.4231221367244608e+01 -1 -34 19
380 1 9.9546015677867832e+00 6.5796391835215635e+00 2.1330886312140333e+01 -6 85 62
499 1 3.3957433718281071e-01 1.0183492394179492e+01 2.2725505593066494e+01 33 -26 -71
39 1 2.1609062713193815e+01 1.0464545432933354e+01 1.8129731387275260e+01 1 40 42
49 1 1.3611325129786831e+01 5.2819778473640060e+00 1.9889154522960439e+01 -9 34 -17
226 1 2.1592155253937619e+01 6.7456971561759422e+00 2.3007015311686242e+01 -1 6 -4
47 1 1.9117061206651488e+01 7.1141370086929978e+00 2.2839338566223084e+01 24 59 -104
370 1 2.4080774700867519e+01 8.9354959717037215e+00 1.7698288594670306e+01 -28 122 31
62 1 4.6028394799536878e+00 1.1280015444280258e+01 1.9502972995947758e+01 82 -26 -49
498 1 1.8159698055195690e+01 4.3116691808993162e+00 2.3170830024916587e+01 36 11 3
439 1 3.5626670891765464e+00 7.8599450729308877e+00 1.8156644565987321e+01 23 -47 -74
449 1 7.5806612450701527e+00 1.8800736912348006e+00 2.3935455416857973e+01 -59 71 26
34 1 8.0229261588488860e+00 2.1420109701216479e+00 1.8413495353622071e+01 -121 -21 125
208 1 1.9264198683044523e+01 6.0183516948294855e+00 1.8531255088592953e+01 22 90 -8
368 1 1.5322066192987000e+01 1.2406492854197563e+01 2.1118309463976932e+01 49 -40 42
422 1 6.7222172750991644e+00 1.0737220747857338e+01 2.1510480157577639e+01 -12 71 71
396 1 9.6938012639028024e+00 9.0725606192553787e+00 2.0156157681806537e+01 -2 0 17
414 1 4.1891955361966007e+00 6.9138763708596427e+00 2.3244407975631251e+01 97 13 60
320 1 1.7989007361697066e+01 7.7633977227478974e+00 1.6637188809647412e+01 24 83 33
33 1 2.3330194261566955e+01 5.7733996781970385e+00 2.1005388320400527e+01 -100 -36 -21
37 1 1.2296262133186247e+01 4.7943310091525115e-01 1.8771999117786237e+01 53 24 -40
11 1 2.0973470572572541e+01 9.7765485949654654e+00 2.0627270790411472e+01 14 72 -48
508 1 1.0742500331172270e+01 3.4482627854051380e+00 1.7334505479544628e+01 8 16 -66
109 1 2.0881478153546229e+01 2.1562552359031688e+00 1.9630625849469205e+01 -88 -37 -49
472 1 1.2399324474379982e+01 7.7366743183195874e+00 1.9319580795349111e+01 32 -32 68
177 1 6.8018367330083498e+00 8.5438443692841641e+00 1.9907205332803862e+01 -23 -40 45
176 1 1.1962912258467890e+01 1.0900063648192665e+01 2.0340608190289149e+01 -91 -89 -29
244 1 3.6922298838081145e+00 2.5890721844655245e+00 2.1823257566239043e+01 -36 75 8
502 1 1.0624894871314851e+01 2.0644460733582219e+00 2.0114134090170097e+01 -47 -24 -52
359 1 1.6504146300297883e+01 9.7589149879851274e+00 2.0394871897221279e+01 -43 49 6
355 1 1.0269941527786685e+01 5.9614362035349959e+00 1.8472441171181259e+01 -29 -1 67
277 1 3.8562963839561117e+00 3.7167208822391826e+00 2.4241207437771031e+01 38 4 106
462 1 1.4960107155184579e+01 1.6351042465290155e+00 1.8314437409079396e+01 -66 13 40
395 1 2.3678396998757851e+01 2.0099345246187390e+00 2.1131729877601359e+01 -33 44 -56
13 1 2.3417051026733379e+01 8.5977575184329869e+00 2.0504725825477490e+01 133 -11 71
301 1 1.5255206567633024e+01 7.7787735741965056e+00 2.2042103148691918e+01 117 35 32
150 1 1.0740474991402447e+01 7.8169139962212260e+00 1.6748521260114480e+01 74 -35 73
118 1 5.9872546454127651e+00 4.6095905085508537e+00 1.9101376545619267e+01 -32 134 -85
453 1 1.1646489036009489e+01 4.4128201384748245e+00 2.1589810167947267e+01 71 -9 -3
283 1 1.7732594655354390e+01 1.1451925558065449e+01 2.2393004767019761e+01 82 -39 60
389 1 1.5680218171679549e+01 1.7826671554110955e+00 2.3126973850130618e+01 7 71 -17
48 1 7.3525323628846415e+00 1.1050569796987926e+01 1.8379705198620975e+01 12 -7 37
111 1 1.2317930189018265e+00 1.9122747772014537e+00 1.7940671991290401e+01 9 49 85
125 1 6.2096076043757167e+00 6.4571451145808254e+00 2.1551717780161720e+01 -46 -46 -12
115 1 8.4474541335333395e+00 5.6741598483315121e+00 2.3488331811336838e+01 72 -149 33
21 1 1.0048976644039904e+01 1.2244366153051923e+01 1.8589959203112880e+01 7 -7 -124
245 1 1.9721348624248364e+01 2.1058830809855098e+00 2.2215120687794919e+01 -19 6 86
321 1 7.0369772273260507e+00 1.4199072013878308e+01 5.9364229939098667e+00 39 26 -77
253 1 7.2462401059227348e+00 1.7700012580523765e+01 1.6040230168549108e+00 -2 8 -9
144 1 2.1411777422089326e+01 2.4107549559488955e+01 7.4616800998407653e+00 -21 20 50
252 1 1.7494978952904781e+01 2.4444218080787376e+01 5.0122664571349951e-01 -52 -85 7
446 1 1.0914847508544115e+01 1.6742369174255078e+01 3.5882663349467445e+00 27 29 -16
143 1 7.8747800780323907e+00 2.2536163786749189e+01 5.6199801212372984e+00 37 1 -5
469 1 1.8570842382598576e+00 1.6118373837908784e+01 2.2382711893003497e+00 46 9 24
353 1 1.3258184922869276e+01 1.6648288682220137e+01 5.0042550422837024e+00 -163 65 98
318 1 2.0156493069614090e+01 2.1493282481432765e+01 6.5653327351387354e+00 35 -2 153
468 1 8.7532292226800301e+00 1.4609922682917583e+01 6.7782063690209804e-01 69 5 -54
458 1 2.5896205170220026e+00 1.3085670910960184e+01 2.8803507929336845e+00 -34 48 0
31 1 1.1460174262375354e+01 1.8241212007617083e+01 1.4653845796706353e+00 -50 -13 123
307 1 6.5993692449003687e+00 2.2260536572505565e+01 7.8958004171987071e+00 -53 97 -9
262 1 3.8098129427853877e-01 1.8236981477775988e+01 3.8976360203113529e+00 11 51 -41
257 1 9.8579249447255464e+00 2.0594184875824961e+01 5.0458333937879560e+00 -18 16 49
71 1 1.3261671106417063e+01 1.9168503439677952e+01 6.8375685718179477e+00 61 -69 -64
172 1 1.4372682534964811e+01 2.0309932939881204e+01 1.5487755326724739e+00 -26 -103 42
494 1 1.5767936034213493e+01 1.3236747371271736e+01 2.4511098849741990e+00 3 57 -77
266 1 6.4830795972353759e+00 1.4916555346630199e+01 2.0385366673130063e+00 40 -59 18
471 1 1.4738158353045518e+01 1.7704287734434438e+01 2.7592149961073411e+00 -85 -22 20
14 1 3.4472212673802369e+00 2.3695870656684466e+01 5.3183188642485595e+00 45 -29 39
88 1 3.6377298059542782e+00 1.8191791268937664e+01 1.2883117598010179e+00 -26 26 60
99 1 2.2999660972080456e+01 2.0191139178874291e+01 6.7585329902335634e+00 0 -14 37
94 1 1.7415309226139904e+01 2.0633259784697753e+01 1.2710590493055793e+00 -59 37 42
279 1 8.1521487729115325e+00 1.2504817557555855e+01 4.1290919335028597e+00 -40 161 52
187 1 1.6866299466190199e+01 2.4237933533890711e+01 3.2013557891316293e+00 -6 20 -15
258 1 5.1898971346826110e+00 1.2831951125472330e+01 3.4477204900078675e+00 122 -49 61
154 1 2.3678174516556279e+01 1.7627637490251946e+01 7.5055205698041005e+00 108 -22 8
485 1 2.2323430614759186e+01 1.2890613258931959e+01 1.9944035187161822e+00 -12 0 74
247 1 1.7981002445394214e+01 1.4804707191467234e+01 1.7303407279731735e+00 19 -9 12
82 1 1.4420181813572476e+01 1.4476814153597894e+01 7.2072777518874478e+00 -14 1 2
297 1 4.3811134579249371e+00 2.2047013261890374e+01 1.7058905041694767e+00 10 28 -13
223 1 1.2975392701305109e+01 2.3213879350320617e+01 2.1121256348647997e+00 94 37 12
369 1 2.4561009666669936e+01 1.4402663002056537e+01 3.9398837323598221e+00 -2 64 -2
74 1 2.0863069471914365e+01 1.7106126612046484e+01 2.1690018836409477e+00 -5 58 -18
328 1 2.2256918622563076e+00 2.0326114223946131e+01 2.9499491954558312e+00 71 82 -12
112 1 9.0173713843673529e+00 1.5813399689220196e+01 5.4724970045333317e+00 18 94 -41
338 1 1.7776054405117943e+01 2.4359672181791233e+01 6.4169041790369565e+00 -1 -2 38
377 1 1.2364451351321437e+01 1.3048042056391187e+01 2.9762794395739727e+00 19 9 -109
484 1 1.3728826630580985e+01 1.4269850847411361e+01 5.8486794126085406e-01 -49 -22 89
346 1 2.3742948069417601e+01 1.7376197226785120e+01 1.1681249205498694e+00 43 24 -115
199 1 1.6928981142831034e+01 1.6152145526242695e+01 7.2154825477094908e+00 25 74 -19
490 1 2.2974808702803987e+01 2.4585243101905039e+01 1.0360044529290340e+00 10 -89 -1
270 1 7.1845137199280873e-01 2.2833355735775736e+01 2.5105324258606223e+00 24 133 102
171 1 1.0569258439829472e+00 2.4436072068017136e+01 6.5444403480065789e+00 -37 44 14
431 1 1.5334031029970857e+01 2.2159394742435719e+01 3.8013107357184395e+00 -64 -39 -31
367 1 1.6805698907129731e+01 1.9594330780621771e+01 4.0203749748435236e+00 11 -4 61
315 1 2.3481156602515174e+01 2.0923692769144978e+01 3.8480612177039015e+00 -71 102 84
201 1 2.1180274310105858e+01 2.0158036951936129e+01 1.8899559186974420e+00 -95 -46 38
313 1 5.7262638308015390e+00 2.1962363687292964e+01 4.3102767036275713e+00 -46 38 32
487 1 1.1252230392035566e+01 2.2857640524638100e+01 5.6743521415344942e+00 30 37 -6
170 1 2.1665077950909581e+01 1.5900996387061365e+01 6.6162607254786314e+00 6 35 -17
282 1 1.5947866882665943e+01 1.8627968886149855e+01 6.3992019153756790e+00 33 23 80
25 1 4.1785787764726976e+00 1.6152144740477851e+01 4.1222731244824775e+00 56 -87 -51
444 1 1.7201664135464775e+01 1.6528060440333928e+01 4.0166347662451969e+00 -3 -30 11
68 1 1.9204643201136602e+01 2.0812681168227389e+01 3.8090779910582655e+00 4 -20 12
161 1 1.9619197888485051e+01 2.2449744491542287e+01 1.0428231228174485e+00 38 -30 45
412 1 1.3692234064569190e+01 2.1567755619167105e+01 5.8025566512872855e+00 -20 24 -64
299 1 9.9919513540403049e+00 1.4284267500780155e+01 3.0959045795774514e+00 44 18 56
188 1 2.9699871299080747e+00 2.0957109469157761e+01 5.5709739006575534e+00 5 -12 64
259 1 1.9471359720983973e+01 2.3627095161502780e+01 4.2081239982712368e+00 -2 52 36
152 1 1.0490102568872702e+01 1.9097429303184196e+01 7.5269275163271718e+00 -58 -149 -6
64 1 2.3305338452198779e+01 2.1569483605823017e+01 7.0590207878108424e-01 -43 64 17
295 1 1.8641476749402873e+01 1.4003935412076522e+01 4.3962822075058936e+00 -43 -7 -8
218 1 5.4221332587257765e+00 1.9022086184901887e+01 3.5761622238600022e+00 -51 -11 -22
375 1 1.1391439641437827e+01 2.0887848669323105e+01 2.3981936345921833e+00 7 43 -121
233 1 4.0038337663182748e+00 1.8275701231975191e+01 6.1399980868772541e+00 -11 -35 -33
385 1 1.7967196350675497e+01 1.7707399618271690e+01 1.4273941626908571e+00 42 24 51
345 1 5.0727470691378391e+00 1.4930120088806163e+01 7.5980613024579071e+00 92 140 -19
497 1 1.5111877931311355e+01 1.4592398842998980e+01 4.5011959879901644e+00 2 29 21
95 1 1.5190216138678165e+00 1.6944800685941249e+01 5.9345122043519485e+00 62 134 -7
96 1 8.4566606977687186e+00 1.8361418781219282e+01 4.1400436606516733e+00 238 47 67
56 1 2.8643847293296241e+00 1.4222725192666234e+01 5.5260019976681276e+00 -12 86 18
267 1 1.9564141409768112e+01 1.7196656391447505e+01 8.0163723441903674e+00 -96 62 -58
326 1 9.1309779412596503e-01 2.1559687070292746e+01 7.5901095633778075e+00 35 120 -6
330 1 2.1356588059666205e+01 1.4966170327920727e+01 3.9735852210408509e+00 -8 25 33
433 1 1.0761791800527877e+01 1.6159546384703017e+01 7.7824509346605097e+00 22 -49 -48
122 1 1.1886392108453018e+01 1.3689722462287055e+01 7.2453824752969371e+00 8 4 11
110 1 1.0216174973692209e+00 1.9305793243308138e+01 3.1214132537708866e-01 32 -32 -27
153 1 2.2795913475058892e+01 1.3812587962029994e+01 8.3519595157718527e+00 2 -14 81
310 1 9.7118737860705799e+00 2.2299501111771328e+01 9.9958678719653937e-01 -11 -9 9
19 1 1.2341476384112566e+00 1.4884570545738969e+01 7.9141598274536937e+00 12 51 79
457 1 1.6647427780797088e+01 1.3070822669151358e+01 8.2257818239283687e+00 -19 -36 69
17 1 4.1732667338719898e+00 2.4370663372289723e+01 3.7644818353661197e-01 43 20 25
260 1 1.3976125955314279e+01 2.2988179523740527e+01 8.2651191702078215e+00 -28 0 57
300 1 5.8884179866001993e+00 2.0217149394676440e+01 4.8081151373867731e-01 -80 73 22
445 1 2.0256144871075698e+01 1.3605806005130713e+01 2.7036379818446932e-01 119 72 13
443 1 2.4053985062888167e+01 2.0438973435271016e+01 1.1591868857839732e+01 -108 28 -12
331 1 7.0833411865785765e+00 1.5729903175632012e+01 1.3638415808949174e+01 37 22 -10
87 1 6.8067539752143924e-01 1.9052786839719388e+01 1.5577486981521345e+01 -9 33 87
500 1 1.8757240945276124e+01 1.6154298654963576e+01 1.0454991507253675e+01 80 -73 51
292 1 2.1896859320632082e+01 1.7498226675267667e+01 1.3839780861566275e+01 -15 21 58
160 1 9.7015894861990279e+00 2.4348244012184558e+01 8.8392672727215729e+00 -20 39 39
139 1 1.7623277630445724e+01 1.3711269084548926e+01 1.0676377299433794e+01 -20 -4 -25
24 1 7.4922930496003737e+00 1.7623833087523479e+01 1.0714235963957314e+01 30 -53 68
32 1 6.8659141976887499e+00 1.3079176269441595e+01 1.2415865328337542e+01 -51 105 -43
136 1 2.2239087854365899e+01 2.0378568805027054e+01 1.3909908959698020e+01 44 -61 108