LAMMPS (4 Jan 2019)
# LAMMPS input script
boundary p p p
units       real
atom_style  atomic
atom_modify map array sort 0 0
read_data   data.in
  orthogonal box = (0.0191589 0.0191589 0.0191589) to (24.8158 24.8158 24.8158)
  1 by 2 by 3 MPI processor grid
  reading atoms ...
  512 atoms
  reading velocities ...
  512 velocities
pair_style  tersoff
pair_coeff  * * WT_ML-BOP.tersoff WT
Reading potential file WT_ML-BOP.tersoff with DATE: 2018-05-25

# ----- Variables -----
variable seed equal 41825
variable T equal 270.0000000000
variable P equal 986.923 # 1 bar

# ----- Initialize -----
neighbor 2.0 nsq
neigh_modify delay 0 every 1 check yes
timestep 5 # 5 fs   # Fix timestep here

# ----- Log file output -----
thermo       10000
thermo_style    custom  time temp press pe ke lx ly lz density vol
thermo_modify line multi norm yes flush yes format float %.6f

# ----- equilibruate --------
#velocity  all create ${T} ${seed}
fix 1 all npt temp ${T} ${T} 100 iso ${P} ${P} 1000
fix 1 all npt temp 270 ${T} 100 iso ${P} ${P} 1000
fix 1 all npt temp 270 270 100 iso ${P} ${P} 1000
fix 1 all npt temp 270 270 100 iso 986.923 ${P} 1000
fix 1 all npt temp 270 270 100 iso 986.923 986.923 1000
run 2000000 # 10 ns
Neighbor list info ...
  update every 1 steps, delay 0 steps, check yes
  max neighbors/atom: 2000, page size: 100000
  master list distance cutoff = 5.55327
  ghost atom cutoff = 5.55327
  1 neighbor lists, perpetual/occasional/extra = 1 0 0
  (1) pair tersoff, perpetual
      attributes: full, newton on
      pair build: full/nsq
      stencil: none
      bin: none
Per MPI rank memory allocation (min/avg/max) = 2.685 | 2.687 | 2.689 Mbytes
---------------- Step        0 ----- CPU =      0.0000 (sec) ----------------
Time     = 0.000000 Temp     = 294.450891 Press    = 562.722559 
PotEng   = -8.494318 KinEng   = 0.875988 Lx       = 24.796682 
Ly       = 24.796682 Lz       = 24.796682 Density  = 1.004569 
Volume   = 15246.871242 
---------------- Step    10000 ----- CPU =      7.7057 (sec) ----------------
Time     = 50000.000000 Temp     = 264.968145 Press    = 512.796507 
PotEng   = -8.568612 KinEng   = 0.788277 Lx       = 24.490660 
Ly       = 24.490660 Lz       = 24.490660 Density  = 1.042699 
Volume   = 14689.312511 
---------------- Step    20000 ----- CPU =     15.0745 (sec) ----------------
Time     = 100000.000000 Temp     = 264.358469 Press    = 1689.690756 
PotEng   = -8.584324 KinEng   = 0.786463 Lx       = 24.319484 
Ly       = 24.319484 Lz       = 24.319484 Density  = 1.064872 
Volume   = 14383.449303 
---------------- Step    30000 ----- CPU =     22.2699 (sec) ----------------
Time     = 150000.000000 Temp     = 265.438180 Press    = 1606.842230 
PotEng   = -8.570533 KinEng   = 0.789675 Lx       = 24.416499 
Ly       = 24.416499 Lz       = 24.416499 Density  = 1.052229 
Volume   = 14556.272307 
---------------- Step    40000 ----- CPU =     29.5720 (sec) ----------------
Time     = 200000.000000 Temp     = 260.387109 Press    = 1008.253886 
PotEng   = -8.613082 KinEng   = 0.774649 Lx       = 24.491117 
Ly       = 24.491117 Lz       = 24.491117 Density  = 1.042641 
Volume   = 14690.135232 
---------------- Step    50000 ----- CPU =     36.9739 (sec) ----------------
Time     = 250000.000000 Temp     = 277.297361 Press    = 194.024186 
PotEng   = -8.597947 KinEng   = 0.824956 Lx       = 24.408675 
Ly       = 24.408675 Lz       = 24.408675 Density  = 1.053241 
Volume   = 14542.284109 
---------------- Step    60000 ----- CPU =     44.2786 (sec) ----------------
Time     = 300000.000000 Temp     = 278.014321 Press    = 468.490317 
PotEng   = -8.621540 KinEng   = 0.827089 Lx       = 24.405152 
Ly       = 24.405152 Lz       = 24.405152 Density  = 1.053698 
Volume   = 14535.987212 
---------------- Step    70000 ----- CPU =     51.7203 (sec) ----------------
Time     = 350000.000000 Temp     = 259.866088 Press    = 312.005917 
PotEng   = -8.584031 KinEng   = 0.773099 Lx       = 24.374836 
Ly       = 24.374836 Lz       = 24.374836 Density  = 1.057634 
Volume   = 14481.885996 
---------------- Step    80000 ----- CPU =     58.9937 (sec) ----------------
Time     = 400000.000000 Temp     = 259.046239 Press    = 706.858062 
PotEng   = -8.567332 KinEng   = 0.770659 Lx       = 24.471521 
Ly       = 24.471521 Lz       = 24.471521 Density  = 1.045148 
Volume   = 14654.900571 
---------------- Step    90000 ----- CPU =     66.1867 (sec) ----------------
Time     = 450000.000000 Temp     = 249.474204 Press    = 1139.508640 
PotEng   = -8.556822 KinEng   = 0.742183 Lx       = 24.435518 
Ly       = 24.435518 Lz       = 24.435518 Density  = 1.049774 
Volume   = 14590.313975 
---------------- Step   100000 ----- CPU =     73.5704 (sec) ----------------
Time     = 500000.000000 Temp     = 279.552033 Press    = 1067.115680 
PotEng   = -8.643127 KinEng   = 0.831664 Lx       = 24.550622 
Ly       = 24.550622 Lz       = 24.550622 Density  = 1.035078 
Volume   = 14797.470214 
---------------- Step   110000 ----- CPU =     80.9231 (sec) ----------------
Time     = 550000.000000 Temp     = 263.479058 Press    = 800.491185 
PotEng   = -8.581674 KinEng   = 0.783847 Lx       = 24.529360 
Ly       = 24.529360 Lz       = 24.529360 Density  = 1.037772 
Volume   = 14759.058039 
---------------- Step   120000 ----- CPU =     88.2661 (sec) ----------------
Time     = 600000.000000 Temp     = 263.708681 Press    = 1534.369041 
PotEng   = -8.647312 KinEng   = 0.784530 Lx       = 24.343370 
Ly       = 24.343370 Lz       = 24.343370 Density  = 1.061741 
Volume   = 14425.872757 
---------------- Step   130000 ----- CPU =     95.5958 (sec) ----------------
Time     = 650000.000000 Temp     = 267.827981 Press    = 1170.402084 
PotEng   = -8.590122 KinEng   = 0.796785 Lx       = 24.445089 
Ly       = 24.445089 Lz       = 24.445089 Density  = 1.048542 
Volume   = 14607.465630 
---------------- Step   140000 ----- CPU =    102.8486 (sec) ----------------
Time     = 700000.000000 Temp     = 266.988317 Press    = -336.138366 
PotEng   = -8.592391 KinEng   = 0.794287 Lx       = 24.577929 
Ly       = 24.577929 Lz       = 24.577929 Density  = 1.031632 
Volume   = 14846.902664 
---------------- Step   150000 ----- CPU =    110.3814 (sec) ----------------
Time     = 750000.000000 Temp     = 267.856928 Press    = 1061.617559 
PotEng   = -8.595952 KinEng   = 0.796871 Lx       = 24.499285 
Ly       = 24.499285 Lz       = 24.499285 Density  = 1.041598 
Volume   = 14704.837457 
---------------- Step   160000 ----- CPU =    118.0493 (sec) ----------------
Time     = 800000.000000 Temp     = 277.345572 Press    = 1614.897062 
PotEng   = -8.656760 KinEng   = 0.825100 Lx       = 24.391955 
Ly       = 24.391955 Lz       = 24.391955 Density  = 1.055409 
Volume   = 14512.420186 
---------------- Step   170000 ----- CPU =    125.7249 (sec) ----------------
Time     = 850000.000000 Temp     = 279.012794 Press    = 132.113631 
PotEng   = -8.557964 KinEng   = 0.830060 Lx       = 24.442451 
Ly       = 24.442451 Lz       = 24.442451 Density  = 1.048881 
Volume   = 14602.736059 
---------------- Step   180000 ----- CPU =    133.1650 (sec) ----------------
Time     = 900000.000000 Temp     = 263.558640 Press    = 1949.615681 
PotEng   = -8.600231 KinEng   = 0.784084 Lx       = 24.422415 
Ly       = 24.422415 Lz       = 24.422415 Density  = 1.051465 
Volume   = 14566.856182 
---------------- Step   190000 ----- CPU =    140.2497 (sec) ----------------
Time     = 950000.000000 Temp     = 255.447975 Press    = 372.463699 
PotEng   = -8.577382 KinEng   = 0.759955 Lx       = 24.536296 
Ly       = 24.536296 Lz       = 24.536296 Density  = 1.036892 
Volume   = 14771.582793 
---------------- Step   200000 ----- CPU =    148.0113 (sec) ----------------
Time     = 1000000.000000 Temp     = 270.606879 Press    = 2278.033609 
PotEng   = -8.672992 KinEng   = 0.805052 Lx       = 24.436933 
Ly       = 24.436933 Lz       = 24.436933 Density  = 1.049592 
Volume   = 14592.848880 
---------------- Step   210000 ----- CPU =    155.6643 (sec) ----------------
Time     = 1050000.000000 Temp     = 271.422516 Press    = 1778.606374 
PotEng   = -8.623112 KinEng   = 0.807479 Lx       = 24.383298 
Ly       = 24.383298 Lz       = 24.383298 Density  = 1.056533 
Volume   = 14496.972771 
---------------- Step   220000 ----- CPU =    163.2183 (sec) ----------------
Time     = 1100000.000000 Temp     = 274.746236 Press    = 334.022937 
PotEng   = -8.646390 KinEng   = 0.817367 Lx       = 24.388177 
Ly       = 24.388177 Lz       = 24.388177 Density  = 1.055899 
Volume   = 14505.677280 
---------------- Step   230000 ----- CPU =    170.3955 (sec) ----------------
Time     = 1150000.000000 Temp     = 273.907652 Press    = 1093.005192 
PotEng   = -8.652082 KinEng   = 0.814872 Lx       = 24.577487 
Ly       = 24.577487 Lz       = 24.577487 Density  = 1.031687 
Volume   = 14846.100587 
---------------- Step   240000 ----- CPU =    177.9820 (sec) ----------------
Time     = 1200000.000000 Temp     = 254.352534 Press    = 737.953214 
PotEng   = -8.661631 KinEng   = 0.756696 Lx       = 24.535364 
Ly       = 24.535364 Lz       = 24.535364 Density  = 1.037010 
Volume   = 14769.898196 
---------------- Step   250000 ----- CPU =    185.3077 (sec) ----------------
Time     = 1250000.000000 Temp     = 267.573495 Press    = 1461.398849 
PotEng   = -8.616265 KinEng   = 0.796028 Lx       = 24.364018 
Ly       = 24.364018 Lz       = 24.364018 Density  = 1.059044 
Volume   = 14462.611285 
---------------- Step   260000 ----- CPU =    192.5048 (sec) ----------------
Time     = 1300000.000000 Temp     = 257.698779 Press    = 1142.879186 
PotEng   = -8.588108 KinEng   = 0.766651 Lx       = 24.432158 
Ly       = 24.432158 Lz       = 24.432158 Density  = 1.050207 
Volume   = 14584.296471 
---------------- Step   270000 ----- CPU =    199.8632 (sec) ----------------
Time     = 1350000.000000 Temp     = 275.691655 Press    = 732.384671 
PotEng   = -8.652297 KinEng   = 0.820179 Lx       = 24.475667 
Ly       = 24.475667 Lz       = 24.475667 Density  = 1.044617 
Volume   = 14662.350354 
---------------- Step   280000 ----- CPU =    207.1341 (sec) ----------------
Time     = 1400000.000000 Temp     = 275.023533 Press    = 1575.699539 
PotEng   = -8.575529 KinEng   = 0.818192 Lx       = 24.364966 
Ly       = 24.364966 Lz       = 24.364966 Density  = 1.058920 
Volume   = 14464.300312 
---------------- Step   290000 ----- CPU =    214.6675 (sec) ----------------
Time     = 1450000.000000 Temp     = 276.156163 Press    = 687.175753 
PotEng   = -8.668261 KinEng   = 0.821561 Lx       = 24.518090 
Ly       = 24.518090 Lz       = 24.518090 Density  = 1.039204 
Volume   = 14738.725055 
---------------- Step   300000 ----- CPU =    222.0866 (sec) ----------------
Time     = 1500000.000000 Temp     = 271.879201 Press    = 1195.916912 
PotEng   = -8.553953 KinEng   = 0.808837 Lx       = 24.304554 
Ly       = 24.304554 Lz       = 24.304554 Density  = 1.066836 
Volume   = 14356.976432 
---------------- Step   310000 ----- CPU =    229.6614 (sec) ----------------
Time     = 1550000.000000 Temp     = 277.561809 Press    = 1682.923049 
PotEng   = -8.653593 KinEng   = 0.825743 Lx       = 24.458954 
Ly       = 24.458954 Lz       = 24.458954 Density  = 1.046759 
Volume   = 14632.334410 
---------------- Step   320000 ----- CPU =    237.0896 (sec) ----------------
Time     = 1600000.000000 Temp     = 253.340368 Press    = 2007.059335 
PotEng   = -8.646176 KinEng   = 0.753685 Lx       = 24.313750 
Ly       = 24.313750 Lz       = 24.313750 Density  = 1.065626 
Volume   = 14373.278616 
---------------- Step   330000 ----- CPU =    244.7231 (sec) ----------------
Time     = 1650000.000000 Temp     = 279.420181 Press    = 883.854023 
PotEng   = -8.589076 KinEng   = 0.831272 Lx       = 24.369361 
Ly       = 24.369361 Lz       = 24.369361 Density  = 1.058347 
Volume   = 14472.129457 
---------------- Step   340000 ----- CPU =    252.0648 (sec) ----------------
Time     = 1700000.000000 Temp     = 268.368251 Press    = 825.580987 
PotEng   = -8.609865 KinEng   = 0.798392 Lx       = 24.489625 
Ly       = 24.489625 Lz       = 24.489625 Density  = 1.042831 
Volume   = 14687.449298 
---------------- Step   350000 ----- CPU =    259.3931 (sec) ----------------
Time     = 1750000.000000 Temp     = 266.719973 Press    = 426.905333 
PotEng   = -8.498590 KinEng   = 0.793489 Lx       = 24.473786 
Ly       = 24.473786 Lz       = 24.473786 Density  = 1.044857 
Volume   = 14658.970293 
---------------- Step   360000 ----- CPU =    266.6502 (sec) ----------------
Time     = 1800000.000000 Temp     = 269.141408 Press    = 1137.960138 
PotEng   = -8.599909 KinEng   = 0.800693 Lx       = 24.513900 
Ly       = 24.513900 Lz       = 24.513900 Density  = 1.039736 
Volume   = 14731.170421 
---------------- Step   370000 ----- CPU =    273.9409 (sec) ----------------
Time     = 1850000.000000 Temp     = 266.719837 Press    = -427.104234 
PotEng   = -8.640961 KinEng   = 0.793488 Lx       = 24.484522 
Ly       = 24.484522 Lz       = 24.484522 Density  = 1.043484 
Volume   = 14678.270135 
---------------- Step   380000 ----- CPU =    281.3038 (sec) ----------------
Time     = 1900000.000000 Temp     = 263.848887 Press    = 616.927732 
PotEng   = -8.622865 KinEng   = 0.784947 Lx       = 24.578147 
Ly       = 24.578147 Lz       = 24.578147 Density  = 1.031604 
Volume   = 14847.296888 
---------------- Step   390000 ----- CPU =    288.7958 (sec) ----------------
Time     = 1950000.000000 Temp     = 257.998751 Press    = 228.466238 
PotEng   = -8.573012 KinEng   = 0.767543 Lx       = 24.479561 
Ly       = 24.479561 Lz       = 24.479561 Density  = 1.044118 
Volume   = 14669.349330 
---------------- Step   400000 ----- CPU =    296.5088 (sec) ----------------
Time     = 2000000.000000 Temp     = 271.899617 Press    = 1892.786067 
PotEng   = -8.631529 KinEng   = 0.808898 Lx       = 24.236077 
Ly       = 24.236077 Lz       = 24.236077 Density  = 1.075904 
Volume   = 14235.966637 
---------------- Step   410000 ----- CPU =    303.7526 (sec) ----------------
Time     = 2050000.000000 Temp     = 286.198999 Press    = 1062.979266 
PotEng   = -8.620837 KinEng   = 0.851439 Lx       = 24.445395 
Ly       = 24.445395 Lz       = 24.445395 Density  = 1.048502 
Volume   = 14608.013799 
---------------- Step   420000 ----- CPU =    310.9584 (sec) ----------------
Time     = 2100000.000000 Temp     = 272.334780 Press    = 1577.698311 
PotEng   = -8.664520 KinEng   = 0.810193 Lx       = 24.437160 
Ly       = 24.437160 Lz       = 24.437160 Density  = 1.049563 
Volume   = 14593.255258 
---------------- Step   430000 ----- CPU =    318.6769 (sec) ----------------
Time     = 2150000.000000 Temp     = 268.832494 Press    = 1025.109576 
PotEng   = -8.661420 KinEng   = 0.799773 Lx       = 24.626885 
Ly       = 24.626885 Lz       = 24.626885 Density  = 1.025492 
Volume   = 14935.798568 
---------------- Step   440000 ----- CPU =    326.1304 (sec) ----------------
Time     = 2200000.000000 Temp     = 288.019081 Press    = 659.344300 
PotEng   = -8.633375 KinEng   = 0.856853 Lx       = 24.468163 
Ly       = 24.468163 Lz       = 24.468163 Density  = 1.045578 
Volume   = 14648.868669 
---------------- Step   450000 ----- CPU =    333.8249 (sec) ----------------
Time     = 2250000.000000 Temp     = 280.697386 Press    = -80.319255 
PotEng   = -8.608890 KinEng   = 0.835071 Lx       = 24.614819 
Ly       = 24.614819 Lz       = 24.614819 Density  = 1.027000 
Volume   = 14913.855517 
---------------- Step   460000 ----- CPU =    341.2521 (sec) ----------------
Time     = 2300000.000000 Temp     = 267.169311 Press    = 320.072293 
PotEng   = -8.585447 KinEng   = 0.794826 Lx       = 24.419235 
Ly       = 24.419235 Lz       = 24.419235 Density  = 1.051875 
Volume   = 14561.167200 
---------------- Step   470000 ----- CPU =    348.7975 (sec) ----------------
Time     = 2350000.000000 Temp     = 252.790357 Press    = 1236.322509 
PotEng   = -8.604155 KinEng   = 0.752048 Lx       = 24.271463 
Ly       = 24.271463 Lz       = 24.271463 Density  = 1.071205 
Volume   = 14298.414620 
---------------- Step   480000 ----- CPU =    356.2571 (sec) ----------------
Time     = 2400000.000000 Temp     = 273.451899 Press    = 2166.296037 
PotEng   = -8.567986 KinEng   = 0.813516 Lx       = 24.441542 
Ly       = 24.441542 Lz       = 24.441542 Density  = 1.048998 
Volume   = 14601.108239 
---------------- Step   490000 ----- CPU =    363.9524 (sec) ----------------
Time     = 2450000.000000 Temp     = 282.660890 Press    = 1911.163480 
PotEng   = -8.697080 KinEng   = 0.840913 Lx       = 24.498602 
Ly       = 24.498602 Lz       = 24.498602 Density  = 1.041685 
Volume   = 14703.608242 
---------------- Step   500000 ----- CPU =    371.2847 (sec) ----------------
Time     = 2500000.000000 Temp     = 276.322237 Press    = 1349.740868 
PotEng   = -8.580496 KinEng   = 0.822055 Lx       = 24.395382 
Ly       = 24.395382 Lz       = 24.395382 Density  = 1.054964 
Volume   = 14518.538224 
---------------- Step   510000 ----- CPU =    378.7230 (sec) ----------------
Time     = 2550000.000000 Temp     = 279.898400 Press    = 758.683716 
PotEng   = -8.608983 KinEng   = 0.832694 Lx       = 24.435571 
Ly       = 24.435571 Lz       = 24.435571 Density  = 1.049767 
Volume   = 14590.410202 
---------------- Step   520000 ----- CPU =    386.0006 (sec) ----------------
Time     = 2600000.000000 Temp     = 272.339886 Press    = 2422.999168 
PotEng   = -8.612130 KinEng   = 0.810208 Lx       = 24.383858 
Ly       = 24.383858 Lz       = 24.383858 Density  = 1.056460 
Volume   = 14497.973001 
---------------- Step   530000 ----- CPU =    393.4259 (sec) ----------------
Time     = 2650000.000000 Temp     = 274.918818 Press    = 599.998915 
PotEng   = -8.587332 KinEng   = 0.817880 Lx       = 24.579040 
Ly       = 24.579040 Lz       = 24.579040 Density  = 1.031492 
Volume   = 14848.916520 
---------------- Step   540000 ----- CPU =    400.7400 (sec) ----------------
Time     = 2700000.000000 Temp     = 271.114931 Press    = -51.928948 
PotEng   = -8.527811 KinEng   = 0.806564 Lx       = 24.340558 
Ly       = 24.340558 Lz       = 24.340558 Density  = 1.062109 
Volume   = 14420.873778 
---------------- Step   550000 ----- CPU =    407.8882 (sec) ----------------
Time     = 2750000.000000 Temp     = 267.160723 Press    = 692.647912 
PotEng   = -8.533186 KinEng   = 0.794800 Lx       = 24.371525 
Ly       = 24.371525 Lz       = 24.371525 Density  = 1.058065 
Volume   = 14475.983884 
---------------- Step   560000 ----- CPU =    414.9405 (sec) ----------------
Time     = 2800000.000000 Temp     = 256.887832 Press    = 1228.945928 
PotEng   = -8.632658 KinEng   = 0.764238 Lx       = 24.480290 
Ly       = 24.480290 Lz       = 24.480290 Density  = 1.044025 
Volume   = 14670.659869 
---------------- Step   570000 ----- CPU =    422.2356 (sec) ----------------
Time     = 2850000.000000 Temp     = 270.090868 Press    = 769.912115 
PotEng   = -8.539565 KinEng   = 0.803517 Lx       = 24.239653 
Ly       = 24.239653 Lz       = 24.239653 Density  = 1.075428 
Volume   = 14242.270213 
---------------- Step   580000 ----- CPU =    429.8578 (sec) ----------------
Time     = 2900000.000000 Temp     = 265.772000 Press    = 518.243125 
PotEng   = -8.680076 KinEng   = 0.790669 Lx       = 24.436764 
Ly       = 24.436764 Lz       = 24.436764 Density  = 1.049614 
Volume   = 14592.546607 
---------------- Step   590000 ----- CPU =    437.4403 (sec) ----------------
Time     = 2950000.000000 Temp     = 267.468954 Press    = -115.819661 
PotEng   = -8.526150 KinEng   = 0.795717 Lx       = 24.550170 
Ly       = 24.550170 Lz       = 24.550170 Density  = 1.035135 
Volume   = 14796.653738 
---------------- Step   600000 ----- CPU =    445.0403 (sec) ----------------
Time     = 3000000.000000 Temp     = 274.190957 Press    = 1016.011538 
PotEng   = -8.609164 KinEng   = 0.815715 Lx       = 24.394212 
Ly       = 24.394212 Lz       = 24.394212 Density  = 1.055116 
Volume   = 14516.449102 
---------------- Step   610000 ----- CPU =    452.9360 (sec) ----------------
Time     = 3050000.000000 Temp     = 264.796624 Press    = 133.610938 
PotEng   = -8.682182 KinEng   = 0.787767 Lx       = 24.550346 
Ly       = 24.550346 Lz       = 24.550346 Density  = 1.035113 
Volume   = 14796.971517 
---------------- Step   620000 ----- CPU =    460.4749 (sec) ----------------
Time     = 3100000.000000 Temp     = 289.529348 Press    = 1382.802679 
PotEng   = -8.546769 KinEng   = 0.861346 Lx       = 24.395488 
Ly       = 24.395488 Lz       = 24.395488 Density  = 1.054950 
Volume   = 14518.726944 
---------------- Step   630000 ----- CPU =    468.1009 (sec) ----------------
Time     = 3150000.000000 Temp     = 272.226069 Press    = 1186.209611 
PotEng   = -8.662949 KinEng   = 0.809869 Lx       = 24.341971 
Ly       = 24.341971 Lz       = 24.341971 Density  = 1.061924 
Volume   = 14423.386684 
---------------- Step   640000 ----- CPU =    475.7345 (sec) ----------------
Time     = 3200000.000000 Temp     = 269.981785 Press    = 628.902597 
PotEng   = -8.466305 KinEng   = 0.803193 Lx       = 24.651090 
Ly       = 24.651090 Lz       = 24.651090 Density  = 1.022474 
Volume   = 14979.881381 
---------------- Step   650000 ----- CPU =    483.6881 (sec) ----------------
Time     = 3250000.000000 Temp     = 271.251430 Press    = 804.893752 
PotEng   = -8.626403 KinEng   = 0.806970 Lx       = 24.568628 
Ly       = 24.568628 Lz       = 24.568628 Density  = 1.032804 
Volume   = 14830.052843 
---------------- Step   660000 ----- CPU =    490.9976 (sec) ----------------
Time     = 3300000.000000 Temp     = 287.890200 Press    = 519.090019 
PotEng   = -8.633244 KinEng   = 0.856470 Lx       = 24.569207 
Ly       = 24.569207 Lz       = 24.569207 Density  = 1.032731 
Volume   = 14831.101762 
---------------- Step   670000 ----- CPU =    498.4630 (sec) ----------------
Time     = 3350000.000000 Temp     = 252.101984 Press    = 955.574396 
PotEng   = -8.647662 KinEng   = 0.750000 Lx       = 24.355740 
Ly       = 24.355740 Lz       = 24.355740 Density  = 1.060124 
Volume   = 14447.875748 
---------------- Step   680000 ----- CPU =    505.9528 (sec) ----------------
Time     = 3400000.000000 Temp     = 269.899174 Press    = 1397.787223 
PotEng   = -8.587880 KinEng   = 0.802947 Lx       = 24.466893 
Ly       = 24.466893 Lz       = 24.466893 Density  = 1.045741 
Volume   = 14646.587956 
---------------- Step   690000 ----- CPU =    513.8929 (sec) ----------------
Time     = 3450000.000000 Temp     = 289.010226 Press    = 1099.366741 
PotEng   = -8.549987 KinEng   = 0.859802 Lx       = 24.450087 
Ly       = 24.450087 Lz       = 24.450087 Density  = 1.047899 
Volume   = 14616.426978 
---------------- Step   700000 ----- CPU =    521.1233 (sec) ----------------
Time     = 3500000.000000 Temp     = 281.287803 Press    = 970.132755 
PotEng   = -8.594504 KinEng   = 0.836828 Lx       = 24.493311 
Ly       = 24.493311 Lz       = 24.493311 Density  = 1.042361 
Volume   = 14694.083679 
---------------- Step   710000 ----- CPU =    528.2985 (sec) ----------------
Time     = 3550000.000000 Temp     = 260.028703 Press    = 924.215717 
PotEng   = -8.623422 KinEng   = 0.773582 Lx       = 24.519668 
Ly       = 24.519668 Lz       = 24.519668 Density  = 1.039003 
Volume   = 14741.570809 
---------------- Step   720000 ----- CPU =    535.5398 (sec) ----------------
Time     = 3600000.000000 Temp     = 267.360007 Press    = 542.371215 
PotEng   = -8.550709 KinEng   = 0.795393 Lx       = 24.605063 
Ly       = 24.605063 Lz       = 24.605063 Density  = 1.028222 
Volume   = 14896.130559 
---------------- Step   730000 ----- CPU =    542.9256 (sec) ----------------
Time     = 3650000.000000 Temp     = 269.685609 Press    = 1396.210856 
PotEng   = -8.630517 KinEng   = 0.802311 Lx       = 24.416691 
Ly       = 24.416691 Lz       = 24.416691 Density  = 1.052204 
Volume   = 14556.615705 
---------------- Step   740000 ----- CPU =    550.1086 (sec) ----------------
Time     = 3700000.000000 Temp     = 282.336575 Press    = 1279.663734 
PotEng   = -8.519858 KinEng   = 0.839948 Lx       = 24.568300 
Ly       = 24.568300 Lz       = 24.568300 Density  = 1.032845 
Volume   = 14829.459358 
---------------- Step   750000 ----- CPU =    557.2857 (sec) ----------------
Time     = 3750000.000000 Temp     = 268.067292 Press    = 1493.027440 
PotEng   = -8.563569 KinEng   = 0.797497 Lx       = 24.419238 
Ly       = 24.419238 Lz       = 24.419238 Density  = 1.051875 
Volume   = 14561.172497 
---------------- Step   760000 ----- CPU =    564.6315 (sec) ----------------
Time     = 3800000.000000 Temp     = 276.331907 Press    = 349.487740 
PotEng   = -8.579907 KinEng   = 0.822084 Lx       = 24.468119 
Ly       = 24.468119 Lz       = 24.468119 Density  = 1.045584 
Volume   = 14648.790746 
---------------- Step   770000 ----- CPU =    571.8826 (sec) ----------------
Time     = 3850000.000000 Temp     = 263.268747 Press    = 1551.235919 
PotEng   = -8.555710 KinEng   = 0.783221 Lx       = 24.401550 
Ly       = 24.401550 Lz       = 24.401550 Density  = 1.054164 
Volume   = 14529.553477 
---------------- Step   780000 ----- CPU =    579.2951 (sec) ----------------
Time     = 3900000.000000 Temp     = 284.386115 Press    = -299.035282 
PotEng   = -8.634259 KinEng   = 0.846045 Lx       = 24.503240 
Ly       = 24.503240 Lz       = 24.503240 Density  = 1.041094 
Volume   = 14711.960466 
---------------- Step   790000 ----- CPU =    586.5374 (sec) ----------------
Time     = 3950000.000000 Temp     = 248.740900 Press    = 961.639278 
PotEng   = -8.583803 KinEng   = 0.740001 Lx       = 24.585105 
Ly       = 24.585105 Lz       = 24.585105 Density  = 1.030729 
Volume   = 14859.910011 
---------------- Step   800000 ----- CPU =    593.7458 (sec) ----------------
Time     = 4000000.000000 Temp     = 268.025885 Press    = 1830.962023 
PotEng   = -8.604709 KinEng   = 0.797374 Lx       = 24.415838 
Ly       = 24.415838 Lz       = 24.415838 Density  = 1.052315 
Volume   = 14555.090072 
---------------- Step   810000 ----- CPU =    601.0071 (sec) ----------------
Time     = 4050000.000000 Temp     = 270.806773 Press    = 426.311772 
PotEng   = -8.660453 KinEng   = 0.805647 Lx       = 24.553854 
Ly       = 24.553854 Lz       = 24.553854 Density  = 1.034669 
Volume   = 14803.315513 
---------------- Step   820000 ----- CPU =    608.3969 (sec) ----------------
Time     = 4100000.000000 Temp     = 280.824762 Press    = 1572.611202 
PotEng   = -8.599731 KinEng   = 0.835450 Lx       = 24.343034 
Ly       = 24.343034 Lz       = 24.343034 Density  = 1.061785 
Volume   = 14425.275196 
---------------- Step   830000 ----- CPU =    615.4864 (sec) ----------------
Time     = 4150000.000000 Temp     = 271.738445 Press    = 1557.069818 
PotEng   = -8.678775 KinEng   = 0.808419 Lx       = 24.502272 
Ly       = 24.502272 Lz       = 24.502272 Density  = 1.041218 
Volume   = 14710.215891 
---------------- Step   840000 ----- CPU =    623.1609 (sec) ----------------
Time     = 4200000.000000 Temp     = 280.160654 Press    = 1032.897534 
PotEng   = -8.537095 KinEng   = 0.833475 Lx       = 24.311070 
Ly       = 24.311070 Lz       = 24.311070 Density  = 1.065978 
Volume   = 14368.526670 
---------------- Step   850000 ----- CPU =    631.2070 (sec) ----------------
Time     = 4250000.000000 Temp     = 258.754750 Press    = 450.514210 
PotEng   = -8.643152 KinEng   = 0.769792 Lx       = 24.532080 
Ly       = 24.532080 Lz       = 24.532080 Density  = 1.037427 
Volume   = 14763.968189 
---------------- Step   860000 ----- CPU =    638.6527 (sec) ----------------
Time     = 4300000.000000 Temp     = 269.560810 Press    = 923.539075 
PotEng   = -8.546373 KinEng   = 0.801940 Lx       = 24.284436 
Ly       = 24.284436 Lz       = 24.284436 Density  = 1.069489 
Volume   = 14321.352647 
---------------- Step   870000 ----- CPU =    646.1740 (sec) ----------------
Time     = 4350000.000000 Temp     = 268.518821 Press    = 851.871559 
PotEng   = -8.588766 KinEng   = 0.798840 Lx       = 24.488108 
Ly       = 24.488108 Lz       = 24.488108 Density  = 1.043025 
Volume   = 14684.721740 
---------------- Step   880000 ----- CPU =    653.5879 (sec) ----------------
Time     = 4400000.000000 Temp     = 264.376093 Press    = 1319.081107 
PotEng   = -8.658089 KinEng   = 0.786516 Lx       = 24.394807 
Ly       = 24.394807 Lz       = 24.394807 Density  = 1.055039 
Volume   = 14517.510547 
---------------- Step   890000 ----- CPU =    661.1922 (sec) ----------------
Time     = 4450000.000000 Temp     = 263.559081 Press    = 414.678648 
PotEng   = -8.630672 KinEng   = 0.784085 Lx       = 24.426770 
Ly       = 24.426770 Lz       = 24.426770 Density  = 1.050902 
Volume   = 14574.649803 
---------------- Step   900000 ----- CPU =    668.7844 (sec) ----------------
Time     = 4500000.000000 Temp     = 269.640517 Press    = -250.081710 
PotEng   = -8.565293 KinEng   = 0.802177 Lx       = 24.529169 
Ly       = 24.529169 Lz       = 24.529169 Density  = 1.037796 
Volume   = 14758.712944 
---------------- Step   910000 ----- CPU =    676.2617 (sec) ----------------
Time     = 4550000.000000 Temp     = 260.674012 Press    = 1103.811342 
PotEng   = -8.646165 KinEng   = 0.775502 Lx       = 24.570201 
Ly       = 24.570201 Lz       = 24.570201 Density  = 1.032605 
Volume   = 14832.901800 
---------------- Step   920000 ----- CPU =    683.7506 (sec) ----------------
Time     = 4600000.000000 Temp     = 289.347738 Press    = 2185.791523 
PotEng   = -8.618839 KinEng   = 0.860806 Lx       = 24.393921 
Ly       = 24.393921 Lz       = 24.393921 Density  = 1.055154 
Volume   = 14515.930015 
---------------- Step   930000 ----- CPU =    690.7560 (sec) ----------------
Time     = 4650000.000000 Temp     = 274.832645 Press    = 1090.650072 
PotEng   = -8.646981 KinEng   = 0.817624 Lx       = 24.490646 
Ly       = 24.490646 Lz       = 24.490646 Density  = 1.042701 
Volume   = 14689.287459 
---------------- Step   940000 ----- CPU =    698.4146 (sec) ----------------
Time     = 4700000.000000 Temp     = 270.491718 Press    = 1121.959263 
PotEng   = -8.605639 KinEng   = 0.804710 Lx       = 24.511547 
Ly       = 24.511547 Lz       = 24.511547 Density  = 1.040036 
Volume   = 14726.928018 
---------------- Step   950000 ----- CPU =    705.6785 (sec) ----------------
Time     = 4750000.000000 Temp     = 267.082373 Press    = 256.128044 
PotEng   = -8.574304 KinEng   = 0.794567 Lx       = 24.477230 
Ly       = 24.477230 Lz       = 24.477230 Density  = 1.044416 
Volume   = 14665.160472 
---------------- Step   960000 ----- CPU =    713.0613 (sec) ----------------
Time     = 4800000.000000 Temp     = 271.392646 Press    = 529.503457 
PotEng   = -8.607775 KinEng   = 0.807390 Lx       = 24.376429 
Ly       = 24.376429 Lz       = 24.376429 Density  = 1.057427 
Volume   = 14484.725364 
---------------- Step   970000 ----- CPU =    720.5490 (sec) ----------------
Time     = 4850000.000000 Temp     = 266.936158 Press    = 2793.974965 
PotEng   = -8.619174 KinEng   = 0.794132 Lx       = 24.434441 
Ly       = 24.434441 Lz       = 24.434441 Density  = 1.049913 
Volume   = 14588.384622 
---------------- Step   980000 ----- CPU =    727.8350 (sec) ----------------
Time     = 4900000.000000 Temp     = 260.392425 Press    = 638.925452 
PotEng   = -8.590699 KinEng   = 0.774664 Lx       = 24.656966 
Ly       = 24.656966 Lz       = 24.656966 Density  = 1.021743 
Volume   = 14990.596553 
---------------- Step   990000 ----- CPU =    735.5611 (sec) ----------------
Time     = 4950000.000000 Temp     = 261.017881 Press    = 235.433784 
PotEng   = -8.630126 KinEng   = 0.776525 Lx       = 24.467724 
Ly       = 24.467724 Lz       = 24.467724 Density  = 1.045634 
Volume   = 14648.079993 
---------------- Step  1000000 ----- CPU =    742.8122 (sec) ----------------
Time     = 5000000.000000 Temp     = 288.251611 Press    = 2114.150355 
PotEng   = -8.667890 KinEng   = 0.857545 Lx       = 24.392496 
Ly       = 24.392496 Lz       = 24.392496 Density  = 1.055339 
Volume   = 14513.384799 
---------------- Step  1010000 ----- CPU =    750.2888 (sec) ----------------
Time     = 5050000.000000 Temp     = 274.409522 Press    = 99.489945 
PotEng   = -8.603648 KinEng   = 0.816365 Lx       = 24.449677 
Ly       = 24.449677 Lz       = 24.449677 Density  = 1.047951 
Volume   = 14615.692267 
---------------- Step  1020000 ----- CPU =    757.7779 (sec) ----------------
Time     = 5100000.000000 Temp     = 275.056717 Press    = 992.981504 
PotEng   = -8.615299 KinEng   = 0.818290 Lx       = 24.489686 
Ly       = 24.489686 Lz       = 24.489686 Density  = 1.042824 
Volume   = 14687.559577 
---------------- Step  1030000 ----- CPU =    765.1795 (sec) ----------------
Time     = 5150000.000000 Temp     = 270.855269 Press    = 209.324781 
PotEng   = -8.514238 KinEng   = 0.805791 Lx       = 24.516029 
Ly       = 24.516029 Lz       = 24.516029 Density  = 1.039466 
Volume   = 14735.007882 
---------------- Step  1040000 ----- CPU =    772.9518 (sec) ----------------
Time     = 5200000.000000 Temp     = 272.297230 Press    = 1362.075018 
PotEng   = -8.562283 KinEng   = 0.810081 Lx       = 24.284903 
Ly       = 24.284903 Lz       = 24.284903 Density  = 1.069428 
Volume   = 14322.180064 
---------------- Step  1050000 ----- CPU =    780.5164 (sec) ----------------
Time     = 5250000.000000 Temp     = 286.999872 Press    = 958.493254 
PotEng   = -8.660730 KinEng   = 0.853821 Lx       = 24.373649 
Ly       = 24.373649 Lz       = 24.373649 Density  = 1.057789 
Volume   = 14479.769875 
---------------- Step  1060000 ----- CPU =    788.2225 (sec) ----------------
Time     = 5300000.000000 Temp     = 275.082689 Press    = 1026.767480 
PotEng   = -8.605269 KinEng   = 0.818368 Lx       = 24.461728 
Ly       = 24.461728 Lz       = 24.461728 Density  = 1.046403 
Volume   = 14637.314403 
---------------- Step  1070000 ----- CPU =    795.7766 (sec) ----------------
Time     = 5350000.000000 Temp     = 266.969232 Press    = 1192.348312 
PotEng   = -8.565467 KinEng   = 0.794230 Lx       = 24.405532 
Ly       = 24.405532 Lz       = 24.405532 Density  = 1.053648 
Volume   = 14536.666887 
---------------- Step  1080000 ----- CPU =    803.0709 (sec) ----------------
Time     = 5400000.000000 Temp     = 268.091886 Press    = 950.985225 
PotEng   = -8.634122 KinEng   = 0.797570 Lx       = 24.444022 
Ly       = 24.444022 Lz       = 24.444022 Density  = 1.048679 
Volume   = 14605.553380 
---------------- Step  1090000 ----- CPU =    810.4278 (sec) ----------------
Time     = 5450000.000000 Temp     = 272.349238 Press    = 1291.761005 
PotEng   = -8.566949 KinEng   = 0.810236 Lx       = 24.388621 
Ly       = 24.388621 Lz       = 24.388621 Density  = 1.055842 
Volume   = 14506.469801 
---------------- Step  1100000 ----- CPU =    818.0369 (sec) ----------------
Time     = 5500000.000000 Temp     = 256.010400 Press    = 305.673558 
PotEng   = -8.616430 KinEng   = 0.761628 Lx       = 24.514420 
Ly       = 24.514420 Lz       = 24.514420 Density  = 1.039670 
Volume   = 14732.107869 
---------------- Step  1110000 ----- CPU =    825.7704 (sec) ----------------
Time     = 5550000.000000 Temp     = 259.565799 Press    = 594.927127 
PotEng   = -8.653466 KinEng   = 0.772205 Lx       = 24.418209 
Ly       = 24.418209 Lz       = 24.418209 Density  = 1.052008 
Volume   = 14559.331363 
---------------- Step  1120000 ----- CPU =    833.5717 (sec) ----------------
Time     = 5600000.000000 Temp     = 261.983566 Press    = 1217.166009 
PotEng   = -8.611189 KinEng   = 0.779398 Lx       = 24.375433 
Ly       = 24.375433 Lz       = 24.375433 Density  = 1.057556 
Volume   = 14482.950343 
---------------- Step  1130000 ----- CPU =    840.9112 (sec) ----------------
Time     = 5650000.000000 Temp     = 269.965722 Press    = 388.394498 
PotEng   = -8.621399 KinEng   = 0.803145 Lx       = 24.416408 
Ly       = 24.416408 Lz       = 24.416408 Density  = 1.052241 
Volume   = 14556.110155 
---------------- Step  1140000 ----- CPU =    848.5696 (sec) ----------------
Time     = 5700000.000000 Temp     = 266.465594 Press    = 775.218824 
PotEng   = -8.622157 KinEng   = 0.792732 Lx       = 24.503418 
Ly       = 24.503418 Lz       = 24.503418 Density  = 1.041071 
Volume   = 14712.280519 
---------------- Step  1150000 ----- CPU =    856.1841 (sec) ----------------
Time     = 5750000.000000 Temp     = 263.239456 Press    = 1336.397995 
PotEng   = -8.650496 KinEng   = 0.783134 Lx       = 24.408983 
Ly       = 24.408983 Lz       = 24.408983 Density  = 1.053201 
Volume   = 14542.834448 
---------------- Step  1160000 ----- CPU =    863.8139 (sec) ----------------
Time     = 5800000.000000 Temp     = 267.188289 Press    = -217.691153 
PotEng   = -8.614286 KinEng   = 0.794882 Lx       = 24.417943 
Ly       = 24.417943 Lz       = 24.417943 Density  = 1.052043 
Volume   = 14558.854323 
---------------- Step  1170000 ----- CPU =    871.2395 (sec) ----------------
Time     = 5850000.000000 Temp     = 266.634501 Press    = 738.240410 
PotEng   = -8.660010 KinEng   = 0.793234 Lx       = 24.417923 
Ly       = 24.417923 Lz       = 24.417923 Density  = 1.052045 
Volume   = 14558.818908 
---------------- Step  1180000 ----- CPU =    878.5389 (sec) ----------------
Time     = 5900000.000000 Temp     = 279.835188 Press    = 2048.339599 
PotEng   = -8.594727 KinEng   = 0.832506 Lx       = 24.443818 
Ly       = 24.443818 Lz       = 24.443818 Density  = 1.048705 
Volume   = 14605.186651 
---------------- Step  1190000 ----- CPU =    886.1723 (sec) ----------------
Time     = 5950000.000000 Temp     = 264.738654 Press    = 268.339337 
PotEng   = -8.589314 KinEng   = 0.787594 Lx       = 24.577182 
Ly       = 24.577182 Lz       = 24.577182 Density  = 1.031726 
Volume   = 14845.549003 
---------------- Step  1200000 ----- CPU =    893.8831 (sec) ----------------
Time     = 6000000.000000 Temp     = 280.127557 Press    = 1991.166889 
PotEng   = -8.614595 KinEng   = 0.833376 Lx       = 24.375914 
Ly       = 24.375914 Lz       = 24.375914 Density  = 1.057494 
Volume   = 14483.807025 
---------------- Step  1210000 ----- CPU =    901.4235 (sec) ----------------
Time     = 6050000.000000 Temp     = 278.244234 Press    = 2202.544126 
PotEng   = -8.597829 KinEng   = 0.827773 Lx       = 24.542415 
Ly       = 24.542415 Lz       = 24.542415 Density  = 1.036117 
Volume   = 14782.635877 
---------------- Step  1220000 ----- CPU =    908.7507 (sec) ----------------
Time     = 6100000.000000 Temp     = 266.081497 Press    = 714.962330 
PotEng   = -8.613252 KinEng   = 0.791589 Lx       = 24.350614 
Ly       = 24.350614 Lz       = 24.350614 Density  = 1.060793 
Volume   = 14438.754361 
---------------- Step  1230000 ----- CPU =    916.1497 (sec) ----------------
Time     = 6150000.000000 Temp     = 275.161090 Press    = 94.083503 
PotEng   = -8.648293 KinEng   = 0.818601 Lx       = 24.562444 
Ly       = 24.562444 Lz       = 24.562444 Density  = 1.033584 
Volume   = 14818.857159 
---------------- Step  1240000 ----- CPU =    923.4585 (sec) ----------------
Time     = 6200000.000000 Temp     = 277.189641 Press    = 1302.924028 
PotEng   = -8.619515 KinEng   = 0.824636 Lx       = 24.482545 
Ly       = 24.482545 Lz       = 24.482545 Density  = 1.043736 
Volume   = 14674.714854 
---------------- Step  1250000 ----- CPU =    930.8797 (sec) ----------------
Time     = 6250000.000000 Temp     = 250.237544 Press    = 581.707071 
PotEng   = -8.570145 KinEng   = 0.744454 Lx       = 24.427875 
Ly       = 24.427875 Lz       = 24.427875 Density  = 1.050760 
Volume   = 14576.628476 
---------------- Step  1260000 ----- CPU =    938.2762 (sec) ----------------
Time     = 6300000.000000 Temp     = 270.383929 Press    = 1132.283819 
PotEng   = -8.639321 KinEng   = 0.804389 Lx       = 24.480139 
Ly       = 24.480139 Lz       = 24.480139 Density  = 1.044044 
Volume   = 14670.389807 
---------------- Step  1270000 ----- CPU =    945.9050 (sec) ----------------
Time     = 6350000.000000 Temp     = 283.104937 Press    = 1981.840503 
PotEng   = -8.607681 KinEng   = 0.842234 Lx       = 24.326357 
Ly       = 24.326357 Lz       = 24.326357 Density  = 1.063970 
Volume   = 14395.647427 
---------------- Step  1280000 ----- CPU =    953.3968 (sec) ----------------
Time     = 6400000.000000 Temp     = 254.456481 Press    = -297.263542 
PotEng   = -8.615631 KinEng   = 0.757005 Lx       = 24.470819 
Ly       = 24.470819 Lz       = 24.470819 Density  = 1.045237 
Volume   = 14653.640745 
---------------- Step  1290000 ----- CPU =    960.9228 (sec) ----------------
Time     = 6450000.000000 Temp     = 255.386424 Press    = 287.722431 
PotEng   = -8.616960 KinEng   = 0.759772 Lx       = 24.389981 
Ly       = 24.389981 Lz       = 24.389981 Density  = 1.055665 
Volume   = 14508.896933 
---------------- Step  1300000 ----- CPU =    968.4887 (sec) ----------------
Time     = 6500000.000000 Temp     = 265.737843 Press    = 349.905821 
PotEng   = -8.569710 KinEng   = 0.790567 Lx       = 24.496546 
Ly       = 24.496546 Lz       = 24.496546 Density  = 1.041948 
Volume   = 14699.905912 
---------------- Step  1310000 ----- CPU =    975.9947 (sec) ----------------
Time     = 6550000.000000 Temp     = 270.018061 Press    = 2107.282660 
PotEng   = -8.645231 KinEng   = 0.803301 Lx       = 24.345854 
Ly       = 24.345854 Lz       = 24.345854 Density  = 1.061416 
Volume   = 14430.289764 
---------------- Step  1320000 ----- CPU =    983.5765 (sec) ----------------
Time     = 6600000.000000 Temp     = 264.464305 Press    = 1415.316637 
PotEng   = -8.635614 KinEng   = 0.786778 Lx       = 24.325080 
Ly       = 24.325080 Lz       = 24.325080 Density  = 1.064137 
Volume   = 14393.381901 
---------------- Step  1330000 ----- CPU =    990.7167 (sec) ----------------
Time     = 6650000.000000 Temp     = 273.360257 Press    = 657.354826 
PotEng   = -8.574858 KinEng   = 0.813244 Lx       = 24.430983 
Ly       = 24.430983 Lz       = 24.430983 Density  = 1.050359 
Volume   = 14582.192473 
---------------- Step  1340000 ----- CPU =    998.3774 (sec) ----------------
Time     = 6700000.000000 Temp     = 265.525852 Press    = 1515.950242 
PotEng   = -8.604297 KinEng   = 0.789936 Lx       = 24.536678 
Ly       = 24.536678 Lz       = 24.536678 Density  = 1.036843 
Volume   = 14772.272674 
---------------- Step  1350000 ----- CPU =   1005.6353 (sec) ----------------
Time     = 6750000.000000 Temp     = 295.056768 Press    = -331.707448 
PotEng   = -8.678148 KinEng   = 0.877790 Lx       = 24.572583 
Ly       = 24.572583 Lz       = 24.572583 Density  = 1.032305 
Volume   = 14837.215995 
---------------- Step  1360000 ----- CPU =   1012.9802 (sec) ----------------
Time     = 6800000.000000 Temp     = 259.133096 Press    = 2059.423469 
PotEng   = -8.574657 KinEng   = 0.770918 Lx       = 24.396063 
Ly       = 24.396063 Lz       = 24.396063 Density  = 1.054876 
Volume   = 14519.752515 
---------------- Step  1370000 ----- CPU =   1020.3801 (sec) ----------------
Time     = 6850000.000000 Temp     = 281.226972 Press    = 1629.386377 
PotEng   = -8.656246 KinEng   = 0.836647 Lx       = 24.293649 
Ly       = 24.293649 Lz       = 24.293649 Density  = 1.068273 
Volume   = 14337.658565 
---------------- Step  1380000 ----- CPU =   1027.8188 (sec) ----------------
Time     = 6900000.000000 Temp     = 269.219134 Press    = 1850.679945 
PotEng   = -8.624340 KinEng   = 0.800924 Lx       = 24.328362 
Ly       = 24.328362 Lz       = 24.328362 Density  = 1.063707 
Volume   = 14399.208366 
---------------- Step  1390000 ----- CPU =   1035.0550 (sec) ----------------
Time     = 6950000.000000 Temp     = 284.666431 Press    = 1663.526555 
PotEng   = -8.599369 KinEng   = 0.846879 Lx       = 24.441964 
Ly       = 24.441964 Lz       = 24.441964 Density  = 1.048944 
Volume   = 14601.863159 
---------------- Step  1400000 ----- CPU =   1042.3817 (sec) ----------------
Time     = 7000000.000000 Temp     = 262.887374 Press    = 351.156424 
PotEng   = -8.588061 KinEng   = 0.782087 Lx       = 24.349435 
Ly       = 24.349435 Lz       = 24.349435 Density  = 1.060947 
Volume   = 14436.657273 
---------------- Step  1410000 ----- CPU =   1049.8141 (sec) ----------------
Time     = 7050000.000000 Temp     = 255.183561 Press    = 476.705601 
PotEng   = -8.640307 KinEng   = 0.759168 Lx       = 24.443626 
Ly       = 24.443626 Lz       = 24.443626 Density  = 1.048730 
Volume   = 14604.843309 
---------------- Step  1420000 ----- CPU =   1057.3789 (sec) ----------------
Time     = 7100000.000000 Temp     = 268.000669 Press    = -416.053594 
PotEng   = -8.530630 KinEng   = 0.797299 Lx       = 24.415894 
Ly       = 24.415894 Lz       = 24.415894 Density  = 1.052307 
Volume   = 14555.190536 
---------------- Step  1430000 ----- CPU =   1064.7874 (sec) ----------------
Time     = 7150000.000000 Temp     = 263.922658 Press    = 1217.245784 
PotEng   = -8.614015 KinEng   = 0.785167 Lx       = 24.443634 
Ly       = 24.443634 Lz       = 24.443634 Density  = 1.048729 
Volume   = 14604.857928 
---------------- Step  1440000 ----- CPU =   1072.1293 (sec) ----------------
Time     = 7200000.000000 Temp     = 274.043022 Press    = 1125.303709 
PotEng   = -8.625965 KinEng   = 0.815275 Lx       = 24.542534 
Ly       = 24.542534 Lz       = 24.542534 Density  = 1.036102 
Volume   = 14782.850740 
---------------- Step  1450000 ----- CPU =   1079.3280 (sec) ----------------
Time     = 7250000.000000 Temp     = 252.213414 Press    = 566.794455 
PotEng   = -8.515951 KinEng   = 0.750332 Lx       = 24.430706 
Ly       = 24.430706 Lz       = 24.430706 Density  = 1.050395 
Volume   = 14581.696143 
---------------- Step  1460000 ----- CPU =   1086.3280 (sec) ----------------
Time     = 7300000.000000 Temp     = 279.183526 Press    = 1107.677046 
PotEng   = -8.591340 KinEng   = 0.830568 Lx       = 24.495858 
Ly       = 24.495858 Lz       = 24.495858 Density  = 1.042036 
Volume   = 14698.666708 
---------------- Step  1470000 ----- CPU =   1093.4992 (sec) ----------------
Time     = 7350000.000000 Temp     = 265.852819 Press    = 380.875659 
PotEng   = -8.574100 KinEng   = 0.790909 Lx       = 24.514601 
Ly       = 24.514601 Lz       = 24.514601 Density  = 1.039647 
Volume   = 14732.433976 
---------------- Step  1480000 ----- CPU =   1100.9220 (sec) ----------------
Time     = 7400000.000000 Temp     = 283.823122 Press    = 1030.788054 
PotEng   = -8.624854 KinEng   = 0.844370 Lx       = 24.396849 
Ly       = 24.396849 Lz       = 24.396849 Density  = 1.054774 
Volume   = 14521.155928 
---------------- Step  1490000 ----- CPU =   1108.1165 (sec) ----------------
Time     = 7450000.000000 Temp     = 268.099936 Press    = 1970.046036 
PotEng   = -8.657363 KinEng   = 0.797594 Lx       = 24.419324 
Ly       = 24.419324 Lz       = 24.419324 Density  = 1.051864 
Volume   = 14561.325633 
---------------- Step  1500000 ----- CPU =   1115.3753 (sec) ----------------
Time     = 7500000.000000 Temp     = 271.854274 Press    = 1315.724355 
PotEng   = -8.579192 KinEng   = 0.808763 Lx       = 24.390197 
Ly       = 24.390197 Lz       = 24.390197 Density  = 1.055637 
Volume   = 14509.282378 
---------------- Step  1510000 ----- CPU =   1122.6831 (sec) ----------------
Time     = 7550000.000000 Temp     = 282.992482 Press    = 716.834581 
PotEng   = -8.651234 KinEng   = 0.841899 Lx       = 24.480564 
Ly       = 24.480564 Lz       = 24.480564 Density  = 1.043990 
Volume   = 14671.154075 
---------------- Step  1520000 ----- CPU =   1130.0235 (sec) ----------------
Time     = 7600000.000000 Temp     = 274.210909 Press    = 1133.085059 
PotEng   = -8.587821 KinEng   = 0.815774 Lx       = 24.400682 
Ly       = 24.400682 Lz       = 24.400682 Density  = 1.054277 
Volume   = 14528.002550 
---------------- Step  1530000 ----- CPU =   1137.8214 (sec) ----------------
Time     = 7650000.000000 Temp     = 284.505902 Press    = 912.585008 
PotEng   = -8.659817 KinEng   = 0.846402 Lx       = 24.262031 
Ly       = 24.262031 Lz       = 24.262031 Density  = 1.072455 
Volume   = 14281.751329 
---------------- Step  1540000 ----- CPU =   1145.5029 (sec) ----------------
Time     = 7700000.000000 Temp     = 262.225689 Press    = 1475.538020 
PotEng   = -8.627553 KinEng   = 0.780118 Lx       = 24.324874 
Ly       = 24.324874 Lz       = 24.324874 Density  = 1.064164 
Volume   = 14393.015346 
---------------- Step  1550000 ----- CPU =   1153.1038 (sec) ----------------
Time     = 7750000.000000 Temp     = 270.667929 Press    = -250.153469 
PotEng   = -8.639007 KinEng   = 0.805234 Lx       = 24.459673 
Ly       = 24.459673 Lz       = 24.459673 Density  = 1.046667 
Volume   = 14633.625286 
---------------- Step  1560000 ----- CPU =   1160.7753 (sec) ----------------
Time     = 7800000.000000 Temp     = 286.541440 Press    = 1811.988081 
PotEng   = -8.668381 KinEng   = 0.852457 Lx       = 24.290268 
Ly       = 24.290268 Lz       = 24.290268 Density  = 1.068719 
Volume   = 14331.674600 
---------------- Step  1570000 ----- CPU =   1168.1104 (sec) ----------------
Time     = 7850000.000000 Temp     = 276.342554 Press    = 654.309165 
PotEng   = -8.627947 KinEng   = 0.822116 Lx       = 24.424540 
Ly       = 24.424540 Lz       = 24.424540 Density  = 1.051190 
Volume   = 14570.659205 
---------------- Step  1580000 ----- CPU =   1176.0086 (sec) ----------------
Time     = 7900000.000000 Temp     = 279.057496 Press    = -42.597646 
PotEng   = -8.639502 KinEng   = 0.830193 Lx       = 24.558564 
Ly       = 24.558564 Lz       = 24.558564 Density  = 1.034074 
Volume   = 14811.836923 
---------------- Step  1590000 ----- CPU =   1183.2448 (sec) ----------------
Time     = 7950000.000000 Temp     = 268.332488 Press    = 1002.013866 
PotEng   = -8.661267 KinEng   = 0.798286 Lx       = 24.501740 
Ly       = 24.501740 Lz       = 24.501740 Density  = 1.041285 
Volume   = 14709.257817 
---------------- Step  1600000 ----- CPU =   1190.8309 (sec) ----------------
Time     = 8000000.000000 Temp     = 257.953089 Press    = 1201.456628 
PotEng   = -8.545224 KinEng   = 0.767407 Lx       = 24.453727 
Ly       = 24.453727 Lz       = 24.453727 Density  = 1.047431 
Volume   = 14622.956322 
---------------- Step  1610000 ----- CPU =   1198.0666 (sec) ----------------
Time     = 8050000.000000 Temp     = 285.374468 Press    = 2630.666092 
PotEng   = -8.581041 KinEng   = 0.848986 Lx       = 24.457766 
Ly       = 24.457766 Lz       = 24.457766 Density  = 1.046912 
Volume   = 14630.203945 
---------------- Step  1620000 ----- CPU =   1205.5151 (sec) ----------------
Time     = 8100000.000000 Temp     = 270.814866 Press    = 1005.027128 
PotEng   = -8.576830 KinEng   = 0.805671 Lx       = 24.364434 
Ly       = 24.364434 Lz       = 24.364434 Density  = 1.058989 
Volume   = 14463.352380 
---------------- Step  1630000 ----- CPU =   1213.1253 (sec) ----------------
Time     = 8150000.000000 Temp     = 277.419399 Press    = 1446.940295 
PotEng   = -8.637774 KinEng   = 0.825319 Lx       = 24.433246 
Ly       = 24.433246 Lz       = 24.433246 Density  = 1.050067 
Volume   = 14586.245777 
---------------- Step  1640000 ----- CPU =   1220.4366 (sec) ----------------
Time     = 8200000.000000 Temp     = 261.980807 Press    = 814.059579 
PotEng   = -8.671461 KinEng   = 0.779390 Lx       = 24.421219 
Ly       = 24.421219 Lz       = 24.421219 Density  = 1.051619 
Volume   = 14564.715452 
---------------- Step  1650000 ----- CPU =   1227.9286 (sec) ----------------
Time     = 8250000.000000 Temp     = 289.677588 Press    = 1313.413801 
PotEng   = -8.668734 KinEng   = 0.861787 Lx       = 24.514530 
Ly       = 24.514530 Lz       = 24.514530 Density  = 1.039656 
Volume   = 14732.306184 
---------------- Step  1660000 ----- CPU =   1235.4651 (sec) ----------------
Time     = 8300000.000000 Temp     = 265.919321 Press    = 1026.416372 
PotEng   = -8.641671 KinEng   = 0.791107 Lx       = 24.432805 
Ly       = 24.432805 Lz       = 24.432805 Density  = 1.050124 
Volume   = 14585.454652 
---------------- Step  1670000 ----- CPU =   1243.3678 (sec) ----------------
Time     = 8350000.000000 Temp     = 280.553744 Press    = 998.042419 
PotEng   = -8.610238 KinEng   = 0.834644 Lx       = 24.388851 
Ly       = 24.388851 Lz       = 24.388851 Density  = 1.055812 
Volume   = 14506.879924 
---------------- Step  1680000 ----- CPU =   1250.8287 (sec) ----------------
Time     = 8400000.000000 Temp     = 274.521510 Press    = 685.145778 
PotEng   = -8.623818 KinEng   = 0.816698 Lx       = 24.547618 
Ly       = 24.547618 Lz       = 24.547618 Density  = 1.035458 
Volume   = 14792.040223 
---------------- Step  1690000 ----- CPU =   1258.3209 (sec) ----------------
Time     = 8450000.000000 Temp     = 274.737554 Press    = 1351.562991 
PotEng   = -8.628789 KinEng   = 0.817341 Lx       = 24.453672 
Ly       = 24.453672 Lz       = 24.453672 Density  = 1.047438 
Volume   = 14622.856881 
---------------- Step  1700000 ----- CPU =   1265.9102 (sec) ----------------
Time     = 8500000.000000 Temp     = 275.549491 Press    = 1927.036616 
PotEng   = -8.626167 KinEng   = 0.819756 Lx       = 24.268591 
Ly       = 24.268591 Lz       = 24.268591 Density  = 1.071586 
Volume   = 14293.338031 
---------------- Step  1710000 ----- CPU =   1273.3842 (sec) ----------------
Time     = 8550000.000000 Temp     = 268.591199 Press    = 89.795702 
PotEng   = -8.615423 KinEng   = 0.799056 Lx       = 24.527123 
Ly       = 24.527123 Lz       = 24.527123 Density  = 1.038056 
Volume   = 14755.020847 
---------------- Step  1720000 ----- CPU =   1280.7071 (sec) ----------------
Time     = 8600000.000000 Temp     = 273.435925 Press    = 1542.921557 
PotEng   = -8.690265 KinEng   = 0.813469 Lx       = 24.400940 
Ly       = 24.400940 Lz       = 24.400940 Density  = 1.054243 
Volume   = 14528.463173 
---------------- Step  1730000 ----- CPU =   1288.1160 (sec) ----------------
Time     = 8650000.000000 Temp     = 280.997744 Press    = 144.761050 
PotEng   = -8.609870 KinEng   = 0.835965 Lx       = 24.481670 
Ly       = 24.481670 Lz       = 24.481670 Density  = 1.043848 
Volume   = 14673.141163 
---------------- Step  1740000 ----- CPU =   1295.5237 (sec) ----------------
Time     = 8700000.000000 Temp     = 238.975097 Press    = 882.661926 
PotEng   = -8.690196 KinEng   = 0.710948 Lx       = 24.443740 
Ly       = 24.443740 Lz       = 24.443740 Density  = 1.048715 
Volume   = 14605.047831 
---------------- Step  1750000 ----- CPU =   1302.9625 (sec) ----------------
Time     = 8750000.000000 Temp     = 274.998632 Press    = -148.293381 
PotEng   = -8.605855 KinEng   = 0.818118 Lx       = 24.404481 
Ly       = 24.404481 Lz       = 24.404481 Density  = 1.053784 
Volume   = 14534.789718 
---------------- Step  1760000 ----- CPU =   1310.3180 (sec) ----------------
Time     = 8800000.000000 Temp     = 263.643008 Press    = 1035.617653 
PotEng   = -8.606587 KinEng   = 0.784335 Lx       = 24.375681 
Ly       = 24.375681 Lz       = 24.375681 Density  = 1.057524 
Volume   = 14483.392241 
---------------- Step  1770000 ----- CPU =   1317.8686 (sec) ----------------
Time     = 8850000.000000 Temp     = 274.138177 Press    = 264.532933 
PotEng   = -8.550153 KinEng   = 0.815558 Lx       = 24.465854 
Ly       = 24.465854 Lz       = 24.465854 Density  = 1.045874 
Volume   = 14644.721891 
---------------- Step  1780000 ----- CPU =   1325.4460 (sec) ----------------
Time     = 8900000.000000 Temp     = 269.129676 Press    = 595.967440 
PotEng   = -8.640042 KinEng   = 0.800658 Lx       = 24.295650 
Ly       = 24.295650 Lz       = 24.295650 Density  = 1.068009 
Volume   = 14341.202620 
---------------- Step  1790000 ----- CPU =   1333.2864 (sec) ----------------
Time     = 8950000.000000 Temp     = 282.195242 Press    = 2104.064173 
PotEng   = -8.607191 KinEng   = 0.839528 Lx       = 24.420221 
Ly       = 24.420221 Lz       = 24.420221 Density  = 1.051748 
Volume   = 14562.930817 
---------------- Step  1800000 ----- CPU =   1340.8391 (sec) ----------------
Time     = 9000000.000000 Temp     = 259.292856 Press    = 590.640428 
PotEng   = -8.634831 KinEng   = 0.771393 Lx       = 24.480016 
Ly       = 24.480016 Lz       = 24.480016 Density  = 1.044060 
Volume   = 14670.167266 
---------------- Step  1810000 ----- CPU =   1348.0920 (sec) ----------------
Time     = 9050000.000000 Temp     = 277.296192 Press    = 1466.868759 
PotEng   = -8.534794 KinEng   = 0.824953 Lx       = 24.550720 
Ly       = 24.550720 Lz       = 24.550720 Density  = 1.035065 
Volume   = 14797.648341 
---------------- Step  1820000 ----- CPU =   1355.6380 (sec) ----------------
Time     = 9100000.000000 Temp     = 265.028318 Press    = 516.987778 
PotEng   = -8.585860 KinEng   = 0.788456 Lx       = 24.427466 
Ly       = 24.427466 Lz       = 24.427466 Density  = 1.050813 
Volume   = 14575.895210 
---------------- Step  1830000 ----- CPU =   1363.1799 (sec) ----------------
Time     = 9150000.000000 Temp     = 267.575654 Press    = 2093.782920 
PotEng   = -8.605741 KinEng   = 0.796034 Lx       = 24.441033 
Ly       = 24.441033 Lz       = 24.441033 Density  = 1.049064 
Volume   = 14600.195601 
---------------- Step  1840000 ----- CPU =   1370.5673 (sec) ----------------
Time     = 9200000.000000 Temp     = 266.726636 Press    = 802.306583 
PotEng   = -8.630610 KinEng   = 0.793509 Lx       = 24.438570 
Ly       = 24.438570 Lz       = 24.438570 Density  = 1.049381 
Volume   = 14595.781222 
---------------- Step  1850000 ----- CPU =   1377.9825 (sec) ----------------
Time     = 9250000.000000 Temp     = 280.316249 Press    = 324.589910 
PotEng   = -8.635197 KinEng   = 0.833938 Lx       = 24.641637 
Ly       = 24.641637 Lz       = 24.641637 Density  = 1.023651 
Volume   = 14962.656046 
---------------- Step  1860000 ----- CPU =   1385.3113 (sec) ----------------
Time     = 9300000.000000 Temp     = 275.996701 Press    = 1280.954854 
PotEng   = -8.597978 KinEng   = 0.821087 Lx       = 24.457163 
Ly       = 24.457163 Lz       = 24.457163 Density  = 1.046989 
Volume   = 14629.120655 
---------------- Step  1870000 ----- CPU =   1393.0328 (sec) ----------------
Time     = 9350000.000000 Temp     = 270.315577 Press    = 648.729426 
PotEng   = -8.606239 KinEng   = 0.804186 Lx       = 24.402992 
Ly       = 24.402992 Lz       = 24.402992 Density  = 1.053977 
Volume   = 14532.128090 
---------------- Step  1880000 ----- CPU =   1400.6222 (sec) ----------------
Time     = 9400000.000000 Temp     = 265.075708 Press    = 2311.941666 
PotEng   = -8.638228 KinEng   = 0.788597 Lx       = 24.374652 
Ly       = 24.374652 Lz       = 24.374652 Density  = 1.057658 
Volume   = 14481.557429 
---------------- Step  1890000 ----- CPU =   1407.6707 (sec) ----------------
Time     = 9450000.000000 Temp     = 270.646900 Press    = 1671.906028 
PotEng   = -8.600593 KinEng   = 0.805171 Lx       = 24.380525 
Ly       = 24.380525 Lz       = 24.380525 Density  = 1.056894 
Volume   = 14492.026994 
---------------- Step  1900000 ----- CPU =   1414.7501 (sec) ----------------
Time     = 9500000.000000 Temp     = 284.854980 Press    = 591.299604 
PotEng   = -8.650830 KinEng   = 0.847440 Lx       = 24.620778 
Ly       = 24.620778 Lz       = 24.620778 Density  = 1.026255 
Volume   = 14924.689293 
---------------- Step  1910000 ----- CPU =   1421.7356 (sec) ----------------
Time     = 9550000.000000 Temp     = 284.758718 Press    = 2295.449188 
PotEng   = -8.576005 KinEng   = 0.847154 Lx       = 24.361222 
Ly       = 24.361222 Lz       = 24.361222 Density  = 1.059408 
Volume   = 14457.633354 
---------------- Step  1920000 ----- CPU =   1429.4153 (sec) ----------------
Time     = 9600000.000000 Temp     = 283.349502 Press    = 1320.497891 
PotEng   = -8.588863 KinEng   = 0.842961 Lx       = 24.382764 
Ly       = 24.382764 Lz       = 24.382764 Density  = 1.056603 
Volume   = 14496.021545 
---------------- Step  1930000 ----- CPU =   1436.7274 (sec) ----------------
Time     = 9650000.000000 Temp     = 263.922646 Press    = 1119.069110 
PotEng   = -8.639468 KinEng   = 0.785167 Lx       = 24.373542 
Ly       = 24.373542 Lz       = 24.373542 Density  = 1.057802 
Volume   = 14479.579993 
---------------- Step  1940000 ----- CPU =   1444.3203 (sec) ----------------
Time     = 9700000.000000 Temp     = 266.401368 Press    = 1008.395174 
PotEng   = -8.588587 KinEng   = 0.792541 Lx       = 24.432789 
Ly       = 24.432789 Lz       = 24.432789 Density  = 1.050126 
Volume   = 14585.427155 
---------------- Step  1950000 ----- CPU =   1452.0497 (sec) ----------------
Time     = 9750000.000000 Temp     = 265.914432 Press    = 1262.499742 
PotEng   = -8.592890 KinEng   = 0.791092 Lx       = 24.338016 
Ly       = 24.338016 Lz       = 24.338016 Density  = 1.062441 
Volume   = 14416.356501 
---------------- Step  1960000 ----- CPU =   1459.4739 (sec) ----------------
Time     = 9800000.000000 Temp     = 264.794944 Press    = 910.252608 
PotEng   = -8.545810 KinEng   = 0.787762 Lx       = 24.433904 
Ly       = 24.433904 Lz       = 24.433904 Density  = 1.049982 
Volume   = 14587.423111 
---------------- Step  1970000 ----- CPU =   1467.2462 (sec) ----------------
Time     = 9850000.000000 Temp     = 265.384169 Press    = 1563.627748 
PotEng   = -8.643578 KinEng   = 0.789515 Lx       = 24.465956 
Ly       = 24.465956 Lz       = 24.465956 Density  = 1.045861 
Volume   = 14644.906123 
---------------- Step  1980000 ----- CPU =   1474.6929 (sec) ----------------
Time     = 9900000.000000 Temp     = 249.428282 Press    = 906.214207 
PotEng   = -8.631637 KinEng   = 0.742046 Lx       = 24.326758 
Ly       = 24.326758 Lz       = 24.326758 Density  = 1.063917 
Volume   = 14396.359599 
---------------- Step  1990000 ----- CPU =   1482.0868 (sec) ----------------
Time     = 9950000.000000 Temp     = 275.901864 Press    = 1825.768315 
PotEng   = -8.619345 KinEng   = 0.820805 Lx       = 24.406375 
Ly       = 24.406375 Lz       = 24.406375 Density  = 1.053539 
Volume   = 14538.173472 
---------------- Step  2000000 ----- CPU =   1489.6147 (sec) ----------------
Time     = 10000000.000000 Temp     = 283.347601 Press    = 2143.692007 
PotEng   = -8.688615 KinEng   = 0.842956 Lx       = 24.384295 
Ly       = 24.384295 Lz       = 24.384295 Density  = 1.056404 
Volume   = 14498.752236 
Loop time of 1489.62 on 6 procs for 2000000 steps with 512 atoms

Performance: 580.015 ns/day, 0.041 hours/ns, 1342.628 timesteps/s
100.0% CPU use with 6 MPI tasks x no OpenMP threads

MPI task timing breakdown:
Section |  min time  |  avg time  |  max time  |%varavg| %total
---------------------------------------------------------------
Pair    | 1128.2     | 1151       | 1177.4     |  59.8 | 77.27
Neigh   | 19.972     | 20.366     | 20.713     |   7.3 |  1.37
Comm    | 243.64     | 271.16     | 295.95     | 128.0 | 18.20
Output  | 0.0092999  | 0.018463   | 0.063942   |  15.0 |  0.00
Modify  | 37.163     | 38.06      | 38.824     |  10.0 |  2.56
Other   |            | 9.056      |            |       |  0.61

Nlocal:    85.3333 ave 90 max 81 min
Histogram: 1 0 1 0 2 0 0 1 0 1
Nghost:    473.167 ave 482 max 463 min
Histogram: 1 0 0 0 1 2 1 0 0 1
Neighs:    0 ave 0 max 0 min
Histogram: 6 0 0 0 0 0 0 0 0 0
FullNghs:  2112.33 ave 2263 max 1998 min
Histogram: 2 0 1 0 1 0 0 0 1 1

Total # of neighbors = 12674
Ave neighs/atom = 24.7539
Neighbor list builds = 111770
Dangerous builds = 0
#reset_timestep 0
#unfix 1  # Remove the fix (important!)

# ---- Custom dump ----
# Easier to analyze than LAMMP's log file

variable        engtot equal etotal
variable        utotal equal pe
variable        cellx equal lx
variable        kintemp equal temp
variable        virpress equal press
variable        massdensity equal density
variable 		volume equal vol

fix             thermodata all print 200 "${volume} ${massdensity}" file "Ref.density" screen no


# DCD trajectory (every 0.5 ps)
#dump            1 all dcd 5000 traj.dcd

# ----- Temperature/Pressure Controls -----
fix 1 all npt temp ${T} ${T} 100 iso ${P} ${P} 1000
fix 1 all npt temp 270 ${T} 100 iso ${P} ${P} 1000
fix 1 all npt temp 270 270 100 iso ${P} ${P} 1000
fix 1 all npt temp 270 270 100 iso 986.923 ${P} 1000
fix 1 all npt temp 270 270 100 iso 986.923 986.923 1000

run 2000000  # production 10 ns
Per MPI rank memory allocation (min/avg/max) = 2.941 | 2.941 | 2.942 Mbytes
---------------- Step  2000000 ----- CPU =      0.0000 (sec) ----------------
Time     = 10000000.000000 Temp     = 283.347601 Press    = 2143.692007 
PotEng   = -8.688615 KinEng   = 0.842956 Lx       = 24.384295 
Ly       = 24.384295 Lz       = 24.384295 Density  = 1.056404 
Volume   = 14498.752236 
---------------- Step  2010000 ----- CPU =      7.4538 (sec) ----------------
Time     = 10050000.000000 Temp     = 263.911191 Press    = 918.586458 
PotEng   = -8.656730 KinEng   = 0.785133 Lx       = 24.420430 
Ly       = 24.420430 Lz       = 24.420430 Density  = 1.051721 
Volume   = 14563.304688 
---------------- Step  2020000 ----- CPU =     15.2224 (sec) ----------------
Time     = 10100000.000000 Temp     = 261.071563 Press    = 974.496537 
PotEng   = -8.604689 KinEng   = 0.776685 Lx       = 24.334708 
Ly       = 24.334708 Lz       = 24.334708 Density  = 1.062875 
Volume   = 14410.479094 
---------------- Step  2030000 ----- CPU =     23.0596 (sec) ----------------
Time     = 10150000.000000 Temp     = 286.092055 Press    = 1443.176356 
PotEng   = -8.750356 KinEng   = 0.851120 Lx       = 24.394420 
Ly       = 24.394420 Lz       = 24.394420 Density  = 1.055089 
Volume   = 14516.820653 
---------------- Step  2040000 ----- CPU =     30.3351 (sec) ----------------
Time     = 10200000.000000 Temp     = 273.337216 Press    = 1071.448447 
PotEng   = -8.583978 KinEng   = 0.813175 Lx       = 24.340447 
Ly       = 24.340447 Lz       = 24.340447 Density  = 1.062123 
Volume   = 14420.676985 
---------------- Step  2050000 ----- CPU =     37.7406 (sec) ----------------
Time     = 10250000.000000 Temp     = 247.097313 Press    = 1161.181431 
PotEng   = -8.613019 KinEng   = 0.735112 Lx       = 24.448883 
Ly       = 24.448883 Lz       = 24.448883 Density  = 1.048053 
Volume   = 14614.268101 
---------------- Step  2060000 ----- CPU =     45.0747 (sec) ----------------
Time     = 10300000.000000 Temp     = 263.224576 Press    = 1222.395697 
PotEng   = -8.632478 KinEng   = 0.783090 Lx       = 24.452778 
Ly       = 24.452778 Lz       = 24.452778 Density  = 1.047553 
Volume   = 14621.253274 
---------------- Step  2070000 ----- CPU =     52.4647 (sec) ----------------
Time     = 10350000.000000 Temp     = 265.905543 Press    = 930.548332 
PotEng   = -8.592551 KinEng   = 0.791066 Lx       = 24.552923 
Ly       = 24.552923 Lz       = 24.552923 Density  = 1.034787 
Volume   = 14801.632176 
---------------- Step  2080000 ----- CPU =     59.9302 (sec) ----------------
Time     = 10400000.000000 Temp     = 255.544394 Press    = 480.079611 
PotEng   = -8.633408 KinEng   = 0.760242 Lx       = 24.493298 
Ly       = 24.493298 Lz       = 24.493298 Density  = 1.042362 
Volume   = 14694.059873 
---------------- Step  2090000 ----- CPU =     67.5556 (sec) ----------------
Time     = 10450000.000000 Temp     = 255.061452 Press    = 329.866434 
PotEng   = -8.602681 KinEng   = 0.758805 Lx       = 24.527240 
Ly       = 24.527240 Lz       = 24.527240 Density  = 1.038041 
Volume   = 14755.232590 
---------------- Step  2100000 ----- CPU =     75.1782 (sec) ----------------
Time     = 10500000.000000 Temp     = 279.872814 Press    = 933.725274 
PotEng   = -8.598237 KinEng   = 0.832618 Lx       = 24.483375 
Ly       = 24.483375 Lz       = 24.483375 Density  = 1.043630 
Volume   = 14676.208204 
---------------- Step  2110000 ----- CPU =     82.8992 (sec) ----------------
Time     = 10550000.000000 Temp     = 265.074851 Press    = 61.857601 
PotEng   = -8.629774 KinEng   = 0.788595 Lx       = 24.547913 
Ly       = 24.547913 Lz       = 24.547913 Density  = 1.035421 
Volume   = 14792.572818 
---------------- Step  2120000 ----- CPU =     90.3738 (sec) ----------------
Time     = 10600000.000000 Temp     = 276.865671 Press    = 589.863637 
PotEng   = -8.662141 KinEng   = 0.823672 Lx       = 24.489386 
Ly       = 24.489386 Lz       = 24.489386 Density  = 1.042862 
Volume   = 14687.019313 
---------------- Step  2130000 ----- CPU =     97.9695 (sec) ----------------
Time     = 10650000.000000 Temp     = 272.347902 Press    = -750.298504 
PotEng   = -8.698426 KinEng   = 0.810232 Lx       = 24.535511 
Ly       = 24.535511 Lz       = 24.535511 Density  = 1.036991 
Volume   = 14770.164559 
---------------- Step  2140000 ----- CPU =    105.5005 (sec) ----------------
Time     = 10700000.000000 Temp     = 284.805041 Press    = 2249.344989 
PotEng   = -8.647482 KinEng   = 0.847292 Lx       = 24.371917 
Ly       = 24.371917 Lz       = 24.371917 Density  = 1.058014 
Volume   = 14476.683076 
---------------- Step  2150000 ----- CPU =    112.9081 (sec) ----------------
Time     = 10750000.000000 Temp     = 281.193435 Press    = 1390.282235 
PotEng   = -8.646567 KinEng   = 0.836547 Lx       = 24.292195 
Ly       = 24.292195 Lz       = 24.292195 Density  = 1.068465 
Volume   = 14335.084325 
---------------- Step  2160000 ----- CPU =    120.1890 (sec) ----------------
Time     = 10800000.000000 Temp     = 247.249857 Press    = 44.283113 
PotEng   = -8.629429 KinEng   = 0.735565 Lx       = 24.564177 
Ly       = 24.564177 Lz       = 24.564177 Density  = 1.033365 
Volume   = 14821.994891 
---------------- Step  2170000 ----- CPU =    127.8386 (sec) ----------------
Time     = 10850000.000000 Temp     = 261.097596 Press    = 1175.227854 
PotEng   = -8.617853 KinEng   = 0.776762 Lx       = 24.448314 
Ly       = 24.448314 Lz       = 24.448314 Density  = 1.048127 
Volume   = 14613.246909 
---------------- Step  2180000 ----- CPU =    135.3563 (sec) ----------------
Time     = 10900000.000000 Temp     = 260.228951 Press    = -163.406732 
PotEng   = -8.641483 KinEng   = 0.774178 Lx       = 24.650357 
Ly       = 24.650357 Lz       = 24.650357 Density  = 1.022565 
Volume   = 14978.544502 
---------------- Step  2190000 ----- CPU =    142.7891 (sec) ----------------
Time     = 10950000.000000 Temp     = 267.640198 Press    = 1322.788726 
PotEng   = -8.584666 KinEng   = 0.796226 Lx       = 24.418682 
Ly       = 24.418682 Lz       = 24.418682 Density  = 1.051947 
Volume   = 14560.177444 
---------------- Step  2200000 ----- CPU =    150.0969 (sec) ----------------
Time     = 11000000.000000 Temp     = 276.775669 Press    = 21.319028 
PotEng   = -8.569934 KinEng   = 0.823404 Lx       = 24.469283 
Ly       = 24.469283 Lz       = 24.469283 Density  = 1.045434 
Volume   = 14650.879955 
---------------- Step  2210000 ----- CPU =    157.7670 (sec) ----------------
Time     = 11050000.000000 Temp     = 272.710916 Press    = 1309.345757 
PotEng   = -8.586208 KinEng   = 0.811312 Lx       = 24.423282 
Ly       = 24.423282 Lz       = 24.423282 Density  = 1.051353 
Volume   = 14568.407042 
---------------- Step  2220000 ----- CPU =    165.1403 (sec) ----------------
Time     = 11100000.000000 Temp     = 262.092315 Press    = 633.197469 
PotEng   = -8.593838 KinEng   = 0.779722 Lx       = 24.473702 
Ly       = 24.473702 Lz       = 24.473702 Density  = 1.044868 
Volume   = 14658.820519 
---------------- Step  2230000 ----- CPU =    172.6892 (sec) ----------------
Time     = 11150000.000000 Temp     = 270.049094 Press    = 926.793558 
PotEng   = -8.576381 KinEng   = 0.803393 Lx       = 24.345464 
Ly       = 24.345464 Lz       = 24.345464 Density  = 1.061467 
Volume   = 14429.595016 
---------------- Step  2240000 ----- CPU =    179.9885 (sec) ----------------
Time     = 11200000.000000 Temp     = 273.215101 Press    = 719.666202 
PotEng   = -8.655510 KinEng   = 0.812812 Lx       = 24.538682 
Ly       = 24.538682 Lz       = 24.538682 Density  = 1.036590 
Volume   = 14775.891635 
---------------- Step  2250000 ----- CPU =    187.2514 (sec) ----------------
Time     = 11250000.000000 Temp     = 271.524389 Press    = 224.716470 
PotEng   = -8.631668 KinEng   = 0.807782 Lx       = 24.493085 
Ly       = 24.493085 Lz       = 24.493085 Density  = 1.042390 
Volume   = 14693.676178 
---------------- Step  2260000 ----- CPU =    194.8164 (sec) ----------------
Time     = 11300000.000000 Temp     = 286.023665 Press    = 1231.480906 
PotEng   = -8.642218 KinEng   = 0.850917 Lx       = 24.418939 
Ly       = 24.418939 Lz       = 24.418939 Density  = 1.051914 
Volume   = 14560.637519 
---------------- Step  2270000 ----- CPU =    202.2801 (sec) ----------------
Time     = 11350000.000000 Temp     = 270.501395 Press    = 1255.060874 
PotEng   = -8.648168 KinEng   = 0.804738 Lx       = 24.452319 
Ly       = 24.452319 Lz       = 24.452319 Density  = 1.047612 
Volume   = 14620.430888 
---------------- Step  2280000 ----- CPU =    209.4355 (sec) ----------------
Time     = 11400000.000000 Temp     = 243.538033 Press    = -524.692170 
PotEng   = -8.609596 KinEng   = 0.724523 Lx       = 24.532484 
Ly       = 24.532484 Lz       = 24.532484 Density  = 1.037375 
Volume   = 14764.697564 
---------------- Step  2290000 ----- CPU =    216.8557 (sec) ----------------
Time     = 11450000.000000 Temp     = 253.272411 Press    = 2400.203713 
PotEng   = -8.602438 KinEng   = 0.753482 Lx       = 24.337110 
Ly       = 24.337110 Lz       = 24.337110 Density  = 1.062560 
Volume   = 14414.745937 
---------------- Step  2300000 ----- CPU =    224.1832 (sec) ----------------
Time     = 11500000.000000 Temp     = 269.034094 Press    = 378.250722 
PotEng   = -8.599838 KinEng   = 0.800373 Lx       = 24.659020 
Ly       = 24.659020 Lz       = 24.659020 Density  = 1.021488 
Volume   = 14994.342307 
---------------- Step  2310000 ----- CPU =    231.7237 (sec) ----------------
Time     = 11550000.000000 Temp     = 278.178343 Press    = 1671.837197 
PotEng   = -8.654020 KinEng   = 0.827577 Lx       = 24.434829 
Ly       = 24.434829 Lz       = 24.434829 Density  = 1.049863 
Volume   = 14589.080165 
---------------- Step  2320000 ----- CPU =    239.1460 (sec) ----------------
Time     = 11600000.000000 Temp     = 267.888183 Press    = -481.460733 
PotEng   = -8.615480 KinEng   = 0.796964 Lx       = 24.550217 
Ly       = 24.550217 Lz       = 24.550217 Density  = 1.035129 
Volume   = 14796.738325 
---------------- Step  2330000 ----- CPU =    246.8222 (sec) ----------------
Time     = 11650000.000000 Temp     = 270.135010 Press    = 1318.692503 
PotEng   = -8.547064 KinEng   = 0.803648 Lx       = 24.389423 
Ly       = 24.389423 Lz       = 24.389423 Density  = 1.055737 
Volume   = 14507.901492 
---------------- Step  2340000 ----- CPU =    254.4079 (sec) ----------------
Time     = 11700000.000000 Temp     = 267.751652 Press    = 1575.429791 
PotEng   = -8.546207 KinEng   = 0.796558 Lx       = 24.503312 
Ly       = 24.503312 Lz       = 24.503312 Density  = 1.041085 
Volume   = 14712.090371 
---------------- Step  2350000 ----- CPU =    261.6128 (sec) ----------------
Time     = 11750000.000000 Temp     = 262.421084 Press    = 523.367156 
PotEng   = -8.653000 KinEng   = 0.780700 Lx       = 24.395561 
Ly       = 24.395561 Lz       = 24.395561 Density  = 1.054941 
Volume   = 14518.856811 
---------------- Step  2360000 ----- CPU =    269.2272 (sec) ----------------
Time     = 11800000.000000 Temp     = 271.185787 Press    = 1068.868051 
PotEng   = -8.659391 KinEng   = 0.806775 Lx       = 24.521046 
Ly       = 24.521046 Lz       = 24.521046 Density  = 1.038828 
Volume   = 14744.055794 
---------------- Step  2370000 ----- CPU =    276.8825 (sec) ----------------
Time     = 11850000.000000 Temp     = 269.664118 Press    = 1377.442366 
PotEng   = -8.561274 KinEng   = 0.802248 Lx       = 24.377776 
Ly       = 24.377776 Lz       = 24.377776 Density  = 1.057251 
Volume   = 14487.125911 
---------------- Step  2380000 ----- CPU =    284.4007 (sec) ----------------
Time     = 11900000.000000 Temp     = 292.738226 Press    = 425.622937 
PotEng   = -8.608992 KinEng   = 0.870893 Lx       = 24.388705 
Ly       = 24.388705 Lz       = 24.388705 Density  = 1.055831 
Volume   = 14506.619756 
---------------- Step  2390000 ----- CPU =    291.9295 (sec) ----------------
Time     = 11950000.000000 Temp     = 280.173394 Press    = 1690.591814 
PotEng   = -8.625076 KinEng   = 0.833513 Lx       = 24.428081 
Ly       = 24.428081 Lz       = 24.428081 Density  = 1.050733 
Volume   = 14576.996279 
---------------- Step  2400000 ----- CPU =    299.3120 (sec) ----------------
Time     = 12000000.000000 Temp     = 277.361286 Press    = 1480.611922 
PotEng   = -8.612168 KinEng   = 0.825147 Lx       = 24.372016 
Ly       = 24.372016 Lz       = 24.372016 Density  = 1.058001 
Volume   = 14476.859610 
---------------- Step  2410000 ----- CPU =    306.5744 (sec) ----------------
Time     = 12050000.000000 Temp     = 275.231202 Press    = 1325.428657 
PotEng   = -8.621043 KinEng   = 0.818810 Lx       = 24.483275 
Ly       = 24.483275 Lz       = 24.483275 Density  = 1.043643 
Volume   = 14676.028367 
---------------- Step  2420000 ----- CPU =    314.4802 (sec) ----------------
Time     = 12100000.000000 Temp     = 272.918796 Press    = 1985.063599 
PotEng   = -8.649462 KinEng   = 0.811930 Lx       = 24.366310 
Ly       = 24.366310 Lz       = 24.366310 Density  = 1.058745 
Volume   = 14466.693714 
---------------- Step  2430000 ----- CPU =    321.8193 (sec) ----------------
Time     = 12150000.000000 Temp     = 260.372799 Press    = 1433.094604 
PotEng   = -8.652718 KinEng   = 0.774606 Lx       = 24.343352 
Ly       = 24.343352 Lz       = 24.343352 Density  = 1.061743 
Volume   = 14425.840125 
---------------- Step  2440000 ----- CPU =    329.0200 (sec) ----------------
Time     = 12200000.000000 Temp     = 273.217154 Press    = -571.431839 
PotEng   = -8.615581 KinEng   = 0.812818 Lx       = 24.562591 
Ly       = 24.562591 Lz       = 24.562591 Density  = 1.033565 
Volume   = 14819.123572 
---------------- Step  2450000 ----- CPU =    336.6509 (sec) ----------------
Time     = 12250000.000000 Temp     = 268.878713 Press    = 1071.172092 
PotEng   = -8.609039 KinEng   = 0.799911 Lx       = 24.429827 
Ly       = 24.429827 Lz       = 24.429827 Density  = 1.050508 
Volume   = 14580.122322 
---------------- Step  2460000 ----- CPU =    344.0276 (sec) ----------------
Time     = 12300000.000000 Temp     = 263.404070 Press    = -536.224592 
PotEng   = -8.623496 KinEng   = 0.783624 Lx       = 24.419048 
Ly       = 24.419048 Lz       = 24.419048 Density  = 1.051900 
Volume   = 14560.831673 
---------------- Step  2470000 ----- CPU =    351.5029 (sec) ----------------
Time     = 12350000.000000 Temp     = 276.144930 Press    = 1207.650843 
PotEng   = -8.564986 KinEng   = 0.821528 Lx       = 24.372337 
Ly       = 24.372337 Lz       = 24.372337 Density  = 1.057959 
Volume   = 14477.431556 
---------------- Step  2480000 ----- CPU =    358.8455 (sec) ----------------
Time     = 12400000.000000 Temp     = 275.067189 Press    = 1073.982269 
PotEng   = -8.570938 KinEng   = 0.818322 Lx       = 24.400066 
Ly       = 24.400066 Lz       = 24.400066 Density  = 1.054357 
Volume   = 14526.901695 
---------------- Step  2490000 ----- CPU =    366.4246 (sec) ----------------
Time     = 12450000.000000 Temp     = 282.539880 Press    = 398.198411 
PotEng   = -8.628044 KinEng   = 0.840553 Lx       = 24.463886 
Ly       = 24.463886 Lz       = 24.463886 Density  = 1.046126 
Volume   = 14641.188281 
---------------- Step  2500000 ----- CPU =    373.9857 (sec) ----------------
Time     = 12500000.000000 Temp     = 276.825871 Press    = 651.185876 
PotEng   = -8.534711 KinEng   = 0.823554 Lx       = 24.427387 
Ly       = 24.427387 Lz       = 24.427387 Density  = 1.050823 
Volume   = 14575.753798 
---------------- Step  2510000 ----- CPU =    381.6367 (sec) ----------------
Time     = 12550000.000000 Temp     = 281.953069 Press    = 452.543159 
PotEng   = -8.640930 KinEng   = 0.838807 Lx       = 24.606936 
Ly       = 24.606936 Lz       = 24.606936 Density  = 1.027988 
Volume   = 14899.532355 
---------------- Step  2520000 ----- CPU =    389.0295 (sec) ----------------
Time     = 12600000.000000 Temp     = 279.276767 Press    = 117.421168 
PotEng   = -8.586811 KinEng   = 0.830845 Lx       = 24.442309 
[...]
PotEng   = -8.577678 KinEng   = 0.813733 Lx       = 24.408822 
Ly       = 24.408822 Lz       = 24.408822 Density  = 1.053222 
Volume   = 14542.547212 
---------------- Step  3390000 ----- CPU =   1043.5713 (sec) ----------------
Time     = 16950000.000000 Temp     = 272.263342 Press    = 618.762528 
PotEng   = -8.664367 KinEng   = 0.809980 Lx       = 24.570763 
Ly       = 24.570763 Lz       = 24.570763 Density  = 1.032535 
Volume   = 14833.919344 
---------------- Step  3400000 ----- CPU =   1050.9784 (sec) ----------------
Time     = 17000000.000000 Temp     = 271.902831 Press    = 2191.949623 
PotEng   = -8.579766 KinEng   = 0.808908 Lx       = 24.374414 
Ly       = 24.374414 Lz       = 24.374414 Density  = 1.057689 
Volume   = 14481.133673 
---------------- Step  3410000 ----- CPU =   1058.4447 (sec) ----------------
Time     = 17050000.000000 Temp     = 262.066019 Press    = 823.132053 
PotEng   = -8.622940 KinEng   = 0.779643 Lx       = 24.515248 
Ly       = 24.515248 Lz       = 24.515248 Density  = 1.039565 
Volume   = 14733.600591 
---------------- Step  3420000 ----- CPU =   1065.7801 (sec) ----------------
Time     = 17100000.000000 Temp     = 264.035256 Press    = 531.555095 
PotEng   = -8.617117 KinEng   = 0.785502 Lx       = 24.366547 
Ly       = 24.366547 Lz       = 24.366547 Density  = 1.058714 
Volume   = 14467.116333 
---------------- Step  3430000 ----- CPU =   1073.2477 (sec) ----------------
Time     = 17150000.000000 Temp     = 272.570509 Press    = 102.364078 
PotEng   = -8.654464 KinEng   = 0.810894 Lx       = 24.437315 
Ly       = 24.437315 Lz       = 24.437315 Density  = 1.049543 
Volume   = 14593.533890 
---------------- Step  3440000 ----- CPU =   1080.7850 (sec) ----------------
Time     = 17200000.000000 Temp     = 277.894947 Press    = 554.918927 
PotEng   = -8.622660 KinEng   = 0.826734 Lx       = 24.433444 
Ly       = 24.433444 Lz       = 24.433444 Density  = 1.050041 
Volume   = 14586.600147 
---------------- Step  3450000 ----- CPU =   1088.6158 (sec) ----------------
Time     = 17250000.000000 Temp     = 277.231539 Press    = 2033.996498 
PotEng   = -8.603679 KinEng   = 0.824761 Lx       = 24.567051 
Ly       = 24.567051 Lz       = 24.567051 Density  = 1.033003 
Volume   = 14827.198221 
---------------- Step  3460000 ----- CPU =   1096.0283 (sec) ----------------
Time     = 17300000.000000 Temp     = 255.458206 Press    = -139.057300 
PotEng   = -8.577147 KinEng   = 0.759985 Lx       = 24.482974 
Ly       = 24.482974 Lz       = 24.482974 Density  = 1.043682 
Volume   = 14675.485834 
---------------- Step  3470000 ----- CPU =   1103.8492 (sec) ----------------
Time     = 17350000.000000 Temp     = 273.414862 Press    = 411.802900 
PotEng   = -8.605950 KinEng   = 0.813406 Lx       = 24.474538 
Ly       = 24.474538 Lz       = 24.474538 Density  = 1.044761 
Volume   = 14660.322094 
---------------- Step  3480000 ----- CPU =   1111.2435 (sec) ----------------
Time     = 17400000.000000 Temp     = 276.882564 Press    = 1401.854497 
PotEng   = -8.629396 KinEng   = 0.823722 Lx       = 24.543052 
Ly       = 24.543052 Lz       = 24.543052 Density  = 1.036036 
Volume   = 14783.787482 
---------------- Step  3490000 ----- CPU =   1118.5749 (sec) ----------------
Time     = 17450000.000000 Temp     = 264.443668 Press    = 267.620106 
PotEng   = -8.563973 KinEng   = 0.786717 Lx       = 24.557065 
Ly       = 24.557065 Lz       = 24.557065 Density  = 1.034263 
Volume   = 14809.124804 
---------------- Step  3500000 ----- CPU =   1126.3070 (sec) ----------------
Time     = 17500000.000000 Temp     = 293.640140 Press    = 1207.696560 
PotEng   = -8.618002 KinEng   = 0.873576 Lx       = 24.384792 
Ly       = 24.384792 Lz       = 24.384792 Density  = 1.056339 
Volume   = 14499.637440 
---------------- Step  3510000 ----- CPU =   1133.7703 (sec) ----------------
Time     = 17550000.000000 Temp     = 275.352533 Press    = 1443.178946 
PotEng   = -8.640927 KinEng   = 0.819171 Lx       = 24.337532 
Ly       = 24.337532 Lz       = 24.337532 Density  = 1.062505 
Volume   = 14415.495708 
---------------- Step  3520000 ----- CPU =   1141.0322 (sec) ----------------
Time     = 17600000.000000 Temp     = 253.197253 Press    = 1243.916707 
PotEng   = -8.649927 KinEng   = 0.753259 Lx       = 24.371706 
Ly       = 24.371706 Lz       = 24.371706 Density  = 1.058042 
Volume   = 14476.307794 
---------------- Step  3530000 ----- CPU =   1148.4787 (sec) ----------------
Time     = 17650000.000000 Temp     = 279.193642 Press    = 1865.457078 
PotEng   = -8.627178 KinEng   = 0.830598 Lx       = 24.408760 
Ly       = 24.408760 Lz       = 24.408760 Density  = 1.053230 
Volume   = 14542.435033 
---------------- Step  3540000 ----- CPU =   1155.6841 (sec) ----------------
Time     = 17700000.000000 Temp     = 273.607482 Press    = 752.140839 
PotEng   = -8.654421 KinEng   = 0.813979 Lx       = 24.539382 
Ly       = 24.539382 Lz       = 24.539382 Density  = 1.036501 
Volume   = 14777.156667 
---------------- Step  3550000 ----- CPU =   1163.2366 (sec) ----------------
Time     = 17750000.000000 Temp     = 258.518344 Press    = 1060.663495 
PotEng   = -8.597097 KinEng   = 0.769089 Lx       = 24.448857 
Ly       = 24.448857 Lz       = 24.448857 Density  = 1.048057 
Volume   = 14614.222165 
---------------- Step  3560000 ----- CPU =   1170.9323 (sec) ----------------
Time     = 17800000.000000 Temp     = 254.354389 Press    = 1512.729533 
PotEng   = -8.592906 KinEng   = 0.756701 Lx       = 24.368327 
Ly       = 24.368327 Lz       = 24.368327 Density  = 1.058482 
Volume   = 14470.287137 
---------------- Step  3570000 ----- CPU =   1178.3549 (sec) ----------------
Time     = 17850000.000000 Temp     = 261.687152 Press    = 1024.964107 
PotEng   = -8.580703 KinEng   = 0.778516 Lx       = 24.448349 
Ly       = 24.448349 Lz       = 24.448349 Density  = 1.048122 
Volume   = 14613.309631 
---------------- Step  3580000 ----- CPU =   1186.1428 (sec) ----------------
Time     = 17900000.000000 Temp     = 277.829431 Press    = 957.337780 
PotEng   = -8.585433 KinEng   = 0.826539 Lx       = 24.370475 
Ly       = 24.370475 Lz       = 24.370475 Density  = 1.058202 
Volume   = 14474.114089 
---------------- Step  3590000 ----- CPU =   1193.9088 (sec) ----------------
Time     = 17950000.000000 Temp     = 264.954174 Press    = 1063.277757 
PotEng   = -8.613919 KinEng   = 0.788236 Lx       = 24.377728 
Ly       = 24.377728 Lz       = 24.377728 Density  = 1.057258 
Volume   = 14487.041582 
---------------- Step  3600000 ----- CPU =   1201.3787 (sec) ----------------
Time     = 18000000.000000 Temp     = 265.241140 Press    = 627.566530 
PotEng   = -8.618851 KinEng   = 0.789089 Lx       = 24.476227 
Ly       = 24.476227 Lz       = 24.476227 Density  = 1.044545 
Volume   = 14663.357217 
---------------- Step  3610000 ----- CPU =   1208.5089 (sec) ----------------
Time     = 18050000.000000 Temp     = 266.695136 Press    = 473.274549 
PotEng   = -8.619518 KinEng   = 0.793415 Lx       = 24.577250 
Ly       = 24.577250 Lz       = 24.577250 Density  = 1.031717 
Volume   = 14845.672495 
---------------- Step  3620000 ----- CPU =   1216.1611 (sec) ----------------
Time     = 18100000.000000 Temp     = 266.517677 Press    = 480.645022 
PotEng   = -8.603955 KinEng   = 0.792887 Lx       = 24.547302 
Ly       = 24.547302 Lz       = 24.547302 Density  = 1.035498 
Volume   = 14791.468982 
---------------- Step  3630000 ----- CPU =   1223.9754 (sec) ----------------
Time     = 18150000.000000 Temp     = 261.159977 Press    = 142.846754 
PotEng   = -8.667006 KinEng   = 0.776948 Lx       = 24.547074 
Ly       = 24.547074 Lz       = 24.547074 Density  = 1.035527 
Volume   = 14791.056832 
---------------- Step  3640000 ----- CPU =   1231.3392 (sec) ----------------
Time     = 18200000.000000 Temp     = 278.079162 Press    = 1344.740853 
PotEng   = -8.621607 KinEng   = 0.827282 Lx       = 24.222337 
Ly       = 24.222337 Lz       = 24.222337 Density  = 1.077736 
Volume   = 14211.768864 
---------------- Step  3650000 ----- CPU =   1238.9618 (sec) ----------------
Time     = 18250000.000000 Temp     = 269.182666 Press    = -12.374421 
PotEng   = -8.607402 KinEng   = 0.800815 Lx       = 24.425372 
Ly       = 24.425372 Lz       = 24.425372 Density  = 1.051083 
Volume   = 14572.146900 
---------------- Step  3660000 ----- CPU =   1246.5393 (sec) ----------------
Time     = 18300000.000000 Temp     = 268.841682 Press    = 2862.988015 
PotEng   = -8.600847 KinEng   = 0.799801 Lx       = 24.236093 
Ly       = 24.236093 Lz       = 24.236093 Density  = 1.075902 
Volume   = 14235.995991 
---------------- Step  3670000 ----- CPU =   1253.8868 (sec) ----------------
Time     = 18350000.000000 Temp     = 269.442718 Press    = 1717.837789 
PotEng   = -8.575638 KinEng   = 0.801589 Lx       = 24.408426 
Ly       = 24.408426 Lz       = 24.408426 Density  = 1.053274 
Volume   = 14541.837946 
---------------- Step  3680000 ----- CPU =   1261.1979 (sec) ----------------
Time     = 18400000.000000 Temp     = 267.373757 Press    = 1094.461914 
PotEng   = -8.531353 KinEng   = 0.795434 Lx       = 24.302266 
Ly       = 24.302266 Lz       = 24.302266 Density  = 1.067137 
Volume   = 14352.922043 
---------------- Step  3690000 ----- CPU =   1268.8951 (sec) ----------------
Time     = 18450000.000000 Temp     = 264.602475 Press    = -49.407016 
PotEng   = -8.565368 KinEng   = 0.787189 Lx       = 24.406529 
Ly       = 24.406529 Lz       = 24.406529 Density  = 1.053519 
Volume   = 14538.447752 
---------------- Step  3700000 ----- CPU =   1276.4217 (sec) ----------------
Time     = 18500000.000000 Temp     = 271.783527 Press    = 925.215253 
PotEng   = -8.634417 KinEng   = 0.808553 Lx       = 24.455609 
Ly       = 24.455609 Lz       = 24.455609 Density  = 1.047189 
Volume   = 14626.332879 
---------------- Step  3710000 ----- CPU =   1283.8143 (sec) ----------------
Time     = 18550000.000000 Temp     = 277.114411 Press    = 1431.802134 
PotEng   = -8.660983 KinEng   = 0.824412 Lx       = 24.621141 
Ly       = 24.621141 Lz       = 24.621141 Density  = 1.026209 
Volume   = 14925.349930 
---------------- Step  3720000 ----- CPU =   1291.4892 (sec) ----------------
Time     = 18600000.000000 Temp     = 277.841692 Press    = 1719.536132 
PotEng   = -8.643576 KinEng   = 0.826576 Lx       = 24.399149 
Ly       = 24.399149 Lz       = 24.399149 Density  = 1.054475 
Volume   = 14525.263822 
---------------- Step  3730000 ----- CPU =   1298.7553 (sec) ----------------
Time     = 18650000.000000 Temp     = 272.401604 Press    = 985.848010 
PotEng   = -8.562356 KinEng   = 0.810392 Lx       = 24.338983 
Ly       = 24.338983 Lz       = 24.338983 Density  = 1.062315 
Volume   = 14418.075453 
---------------- Step  3740000 ----- CPU =   1306.1834 (sec) ----------------
Time     = 18700000.000000 Temp     = 262.511754 Press    = 1345.168637 
PotEng   = -8.597897 KinEng   = 0.780969 Lx       = 24.425958 
Ly       = 24.425958 Lz       = 24.425958 Density  = 1.051007 
Volume   = 14573.196002 
---------------- Step  3750000 ----- CPU =   1313.4378 (sec) ----------------
Time     = 18750000.000000 Temp     = 272.559173 Press    = 641.037842 
PotEng   = -8.625499 KinEng   = 0.810860 Lx       = 24.496006 
Ly       = 24.496006 Lz       = 24.496006 Density  = 1.042017 
Volume   = 14698.933815 
---------------- Step  3760000 ----- CPU =   1320.9062 (sec) ----------------
Time     = 18800000.000000 Temp     = 268.258573 Press    = 2583.485463 
PotEng   = -8.525519 KinEng   = 0.798066 Lx       = 24.330518 
Ly       = 24.330518 Lz       = 24.330518 Density  = 1.063424 
Volume   = 14403.036619 
---------------- Step  3770000 ----- CPU =   1328.5239 (sec) ----------------
Time     = 18850000.000000 Temp     = 270.149001 Press    = 380.976395 
PotEng   = -8.524228 KinEng   = 0.803690 Lx       = 24.495995 
Ly       = 24.495995 Lz       = 24.495995 Density  = 1.042018 
Volume   = 14698.914372 
---------------- Step  3780000 ----- CPU =   1336.2084 (sec) ----------------
Time     = 18900000.000000 Temp     = 279.492557 Press    = 1406.328029 
PotEng   = -8.618424 KinEng   = 0.831487 Lx       = 24.404829 
Ly       = 24.404829 Lz       = 24.404829 Density  = 1.053739 
Volume   = 14535.410849 
---------------- Step  3790000 ----- CPU =   1343.8799 (sec) ----------------
Time     = 18950000.000000 Temp     = 279.192872 Press    = 320.427058 
PotEng   = -8.561137 KinEng   = 0.830595 Lx       = 24.453580 
Ly       = 24.453580 Lz       = 24.453580 Density  = 1.047450 
Volume   = 14622.692362 
---------------- Step  3800000 ----- CPU =   1351.4228 (sec) ----------------
Time     = 19000000.000000 Temp     = 261.200621 Press    = 372.407688 
PotEng   = -8.610611 KinEng   = 0.777069 Lx       = 24.515908 
Ly       = 24.515908 Lz       = 24.515908 Density  = 1.039481 
Volume   = 14734.789974 
---------------- Step  3810000 ----- CPU =   1358.6786 (sec) ----------------
Time     = 19050000.000000 Temp     = 276.898284 Press    = 1876.549474 
PotEng   = -8.563512 KinEng   = 0.823769 Lx       = 24.397294 
Ly       = 24.397294 Lz       = 24.397294 Density  = 1.054716 
Volume   = 14521.950762 
---------------- Step  3820000 ----- CPU =   1366.4869 (sec) ----------------
Time     = 19100000.000000 Temp     = 288.413332 Press    = 346.777432 
PotEng   = -8.586901 KinEng   = 0.858026 Lx       = 24.518003 
Ly       = 24.518003 Lz       = 24.518003 Density  = 1.039215 
Volume   = 14738.567064 
---------------- Step  3830000 ----- CPU =   1374.0707 (sec) ----------------
Time     = 19150000.000000 Temp     = 266.673764 Press    = 1903.311671 
PotEng   = -8.580739 KinEng   = 0.793351 Lx       = 24.206554 
Ly       = 24.206554 Lz       = 24.206554 Density  = 1.079845 
Volume   = 14184.006662 
---------------- Step  3840000 ----- CPU =   1381.4854 (sec) ----------------
Time     = 19200000.000000 Temp     = 259.567057 Press    = 1321.474853 
PotEng   = -8.667164 KinEng   = 0.772209 Lx       = 24.411361 
Ly       = 24.411361 Lz       = 24.411361 Density  = 1.052894 
Volume   = 14547.084992 
---------------- Step  3850000 ----- CPU =   1389.0100 (sec) ----------------
Time     = 19250000.000000 Temp     = 277.490327 Press    = 2570.972443 
PotEng   = -8.623226 KinEng   = 0.825530 Lx       = 24.441270 
Ly       = 24.441270 Lz       = 24.441270 Density  = 1.049033 
Volume   = 14600.620281 
---------------- Step  3860000 ----- CPU =   1396.5283 (sec) ----------------
Time     = 19300000.000000 Temp     = 267.958903 Press    = -179.611280 
PotEng   = -8.522923 KinEng   = 0.797175 Lx       = 24.556707 
Ly       = 24.556707 Lz       = 24.556707 Density  = 1.034309 
Volume   = 14808.476128 
---------------- Step  3870000 ----- CPU =   1404.3360 (sec) ----------------
Time     = 19350000.000000 Temp     = 277.851349 Press    = 1219.647126 
PotEng   = -8.628289 KinEng   = 0.826604 Lx       = 24.515709 
Ly       = 24.515709 Lz       = 24.515709 Density  = 1.039506 
Volume   = 14734.430341 
---------------- Step  3880000 ----- CPU =   1411.8862 (sec) ----------------
Time     = 19400000.000000 Temp     = 268.850809 Press    = 1088.319574 
PotEng   = -8.618447 KinEng   = 0.799828 Lx       = 24.464628 
Ly       = 24.464628 Lz       = 24.464628 Density  = 1.046031 
Volume   = 14642.520177 
---------------- Step  3890000 ----- CPU =   1419.3724 (sec) ----------------
Time     = 19450000.000000 Temp     = 261.126776 Press    = 1379.903912 
PotEng   = -8.592468 KinEng   = 0.776849 Lx       = 24.370929 
Ly       = 24.370929 Lz       = 24.370929 Density  = 1.058143 
Volume   = 14474.923427 
---------------- Step  3900000 ----- CPU =   1426.7738 (sec) ----------------
Time     = 19500000.000000 Temp     = 269.250004 Press    = 1744.242698 
PotEng   = -8.692807 KinEng   = 0.801016 Lx       = 24.420902 
Ly       = 24.420902 Lz       = 24.420902 Density  = 1.051660 
Volume   = 14564.148662 
---------------- Step  3910000 ----- CPU =   1434.1201 (sec) ----------------
Time     = 19550000.000000 Temp     = 284.293459 Press    = 2592.483400 
PotEng   = -8.544883 KinEng   = 0.845770 Lx       = 24.273801 
Ly       = 24.273801 Lz       = 24.273801 Density  = 1.070896 
Volume   = 14302.545684 
---------------- Step  3920000 ----- CPU =   1441.7306 (sec) ----------------
Time     = 19600000.000000 Temp     = 266.666573 Press    = 1085.250105 
PotEng   = -8.665636 KinEng   = 0.793330 Lx       = 24.454860 
Ly       = 24.454860 Lz       = 24.454860 Density  = 1.047285 
Volume   = 14624.988719 
---------------- Step  3930000 ----- CPU =   1449.1357 (sec) ----------------
Time     = 19650000.000000 Temp     = 255.615115 Press    = -656.473664 
PotEng   = -8.614757 KinEng   = 0.760452 Lx       = 24.527844 
Ly       = 24.527844 Lz       = 24.527844 Density  = 1.037964 
Volume   = 14756.321513 
---------------- Step  3940000 ----- CPU =   1456.4756 (sec) ----------------
Time     = 19700000.000000 Temp     = 276.790129 Press    = 1937.332276 
PotEng   = -8.630561 KinEng   = 0.823447 Lx       = 24.532275 
Ly       = 24.532275 Lz       = 24.532275 Density  = 1.037402 
Volume   = 14764.321461 
---------------- Step  3950000 ----- CPU =   1464.0047 (sec) ----------------
Time     = 19750000.000000 Temp     = 266.502027 Press    = 1258.904258 
PotEng   = -8.634952 KinEng   = 0.792840 Lx       = 24.498887 
Ly       = 24.498887 Lz       = 24.498887 Density  = 1.041649 
Volume   = 14704.120506 
---------------- Step  3960000 ----- CPU =   1471.3569 (sec) ----------------
Time     = 19800000.000000 Temp     = 271.643723 Press    = 1436.413609 
PotEng   = -8.540153 KinEng   = 0.808137 Lx       = 24.570778 
Ly       = 24.570778 Lz       = 24.570778 Density  = 1.032533 
Volume   = 14833.947344 
---------------- Step  3970000 ----- CPU =   1478.6530 (sec) ----------------
Time     = 19850000.000000 Temp     = 261.851948 Press    = 1479.833834 
PotEng   = -8.615150 KinEng   = 0.779006 Lx       = 24.452887 
Ly       = 24.452887 Lz       = 24.452887 Density  = 1.047539 
Volume   = 14621.449346 
---------------- Step  3980000 ----- CPU =   1485.8581 (sec) ----------------
Time     = 19900000.000000 Temp     = 259.077635 Press    = 464.639002 
PotEng   = -8.638348 KinEng   = 0.770753 Lx       = 24.541186 
Ly       = 24.541186 Lz       = 24.541186 Density  = 1.036272 
Volume   = 14780.415190 
---------------- Step  3990000 ----- CPU =   1493.4190 (sec) ----------------
Time     = 19950000.000000 Temp     = 269.377727 Press    = 208.552664 
PotEng   = -8.638568 KinEng   = 0.801396 Lx       = 24.463831 
Ly       = 24.463831 Lz       = 24.463831 Density  = 1.046133 
Volume   = 14641.090282 
---------------- Step  4000000 ----- CPU =   1500.8651 (sec) ----------------
Time     = 20000000.000000 Temp     = 264.588304 Press    = 1913.906233 
PotEng   = -8.571668 KinEng   = 0.787147 Lx       = 24.341488 
Ly       = 24.341488 Lz       = 24.341488 Density  = 1.061987 
Volume   = 14422.527133 
Loop time of 1500.87 on 6 procs for 2000000 steps with 512 atoms

Performance: 575.667 ns/day, 0.042 hours/ns, 1332.563 timesteps/s
100.0% CPU use with 6 MPI tasks x no OpenMP threads

MPI task timing breakdown:
Section |  min time  |  avg time  |  max time  |%varavg| %total
---------------------------------------------------------------
Pair    | 1131.5     | 1153       | 1180.1     |  59.7 | 76.83
Neigh   | 20.023     | 20.425     | 20.791     |   7.4 |  1.36
Comm    | 248.48     | 276.64     | 300.11     | 126.5 | 18.43
Output  | 0.010925   | 0.018585   | 0.056478   |  12.4 |  0.00
Modify  | 40.404     | 41.258     | 41.981     |   8.9 |  2.75
Other   |            | 9.482      |            |       |  0.63

Nlocal:    85.3333 ave 88 max 80 min
Histogram: 1 0 0 0 0 1 0 1 2 1
Nghost:    481.833 ave 490 max 468 min
Histogram: 1 0 1 0 0 0 0 1 0 3
Neighs:    0 ave 0 max 0 min
Histogram: 6 0 0 0 0 0 0 0 0 0
FullNghs:  2108.33 ave 2197 max 1988 min
Histogram: 1 0 0 0 1 1 1 0 1 1

Total # of neighbors = 12650
Ave neighs/atom = 24.707
Neighbor list builds = 111822
Dangerous builds = 0

write_data data.final
Total wall time: 0:49:50
