LAMMPS data file via write_data, version 4 Jan 2019, timestep = 1000000

512 atoms
1 atom types

3.4840102361469505e-02 2.4800159897635272e+01 xlo xhi
3.4840102361469505e-02 2.4800159897635272e+01 ylo yhi
3.4840102361469505e-02 2.4800159897635272e+01 zlo zhi

Masses

1 18.0153

Atoms # atomic

357 1 5.4115288072883660e-01 8.4116652091747373e+00 1.1993991289871918e+01 5 -15 -5
242 1 4.5766446711525735e+00 1.0368062827716441e+01 9.7480239175397614e+00 21 15 -46
404 1 3.8253942172371289e+00 1.2006424559281134e+01 1.2845376318499597e+00 -25 128 57
501 1 3.9317438469069694e+00 5.0290408263699788e+00 1.2116872117868589e+00 39 -17 -3
39 1 6.7312795584276346e+00 1.0710869938898481e+01 1.0225144394113528e+00 4 33 49
46 1 9.2617845852635412e+00 9.6574566390700003e+00 6.6215464038146363e+00 37 -8 67
181 1 9.8386809617856823e+00 7.3336126093466341e+00 6.2368243478307872e-01 79 71 -49
171 1 2.6705134417257383e+00 1.1063970976804280e+00 1.1917099944059940e+01 -32 40 20
210 1 4.2515959874197531e+00 2.3513344658789861e+00 2.0354544893409869e+00 -2 -9 51
201 1 1.9445859338723808e+00 3.3682740962974420e+00 7.2685251916759910e+00 -95 -48 35
160 1 9.6837437780602738e+00 6.5782296817043724e+00 1.2099629169150829e+01 -24 37 41
306 1 1.7260293323885334e+00 1.0503292276531273e+01 2.3122206520268396e+00 -15 72 -65
106 1 8.5401378847469118e+00 6.6599277945773725e+00 6.1444848203332603e+00 16 -19 5
321 1 7.1034449788938723e+00 1.4643258074020917e+00 5.3981095933199557e+00 50 24 -86
347 1 5.9555998434508306e-01 9.8494007351900397e+00 4.7887921308516956e+00 -121 -4 -8
211 1 8.1733080480559606e-01 9.3729808065030429e-01 4.6768252151691510e+00 -29 11 -23
410 1 2.5840124678961014e+00 5.4237611120302285e+00 1.1299473315864073e+01 29 142 0
151 1 3.2617108248712596e+00 3.0350889728516091e+00 9.8645561871302441e+00 -41 -32 -8
461 1 7.2583901607016754e+00 6.2818553300204183e+00 1.1012330132134478e+01 9 33 -4
265 1 5.5504020193828305e+00 6.1300883595449847e+00 8.3659402970622789e+00 -76 -60 63
120 1 1.1233004151979605e+01 4.2218173991401899e+00 8.1172669345859170e+00 1 -73 70
215 1 7.1983149503797907e+00 4.6449115420485736e+00 4.4468092295433514e+00 12 -136 -35
207 1 6.8489930976937181e+00 1.2007304025093978e+01 1.1157562749803597e+01 38 -32 -3
282 1 3.0642872415113181e-01 1.1759321365580637e+00 7.6855817853455859e+00 40 30 77
94 1 6.7323902234801087e+00 7.5017233711975280e+00 4.2551203107354860e+00 -61 36 47
278 1 1.1540654147754594e+01 1.0454610289885490e+01 1.0123127256818039e+01 -77 -103 41
227 1 2.5882756334221519e+00 1.1336646855995426e+01 8.3909610567529302e+00 133 103 -2
125 1 1.1785229344135164e+01 5.0801332983330294e+00 3.1402009270857643e+00 -40 -43 -9
375 1 6.5113652821495087e+00 8.7088203379495777e-01 1.5396137134880605e+00 20 64 -116
203 1 1.1461929941686224e+01 9.5987960278415336e+00 6.2352596704683905e-01 102 -117 73
428 1 1.0111028883018296e+01 1.0321726630420418e+01 3.2500501815031746e+00 56 -4 -5
378 1 4.4847544936954673e+00 1.8607836152168540e+00 6.4025587033890776e+00 13 -13 -58
437 1 1.1354225271599139e+00 8.5721427804521575e+00 8.9569650959803067e+00 2 7 -119
17 1 7.8738349088819080e+00 8.6391980592657784e+00 2.2967272087668502e+00 50 20 17
156 1 2.6688617988177050e+00 1.0682952066634759e+00 2.4716768698454950e-01 42 33 -12
55 1 4.5957443000472260e+00 8.7334390069871013e+00 5.3887892209553101e+00 24 63 -18
127 1 7.8756026924026932e+00 7.9732008930317306e+00 8.6690597765557644e+00 57 72 72
486 1 2.6289697113036983e+00 7.9121620551430905e+00 1.8207520065782117e+00 59 23 -11
165 1 6.2623728149685505e+00 9.6582590133964601e+00 7.5887751831969608e+00 85 -10 90
4 1 9.1058241046884802e+00 5.1745449139744712e+00 2.1709325810908795e+00 26 -77 8
294 1 1.1478662963498694e+01 2.4788812847239199e+00 3.1237160443528085e+00 38 38 -80
208 1 5.7995960328338407e+00 1.6378107772495571e+00 9.1102211496929577e+00 24 87 -5
19 1 5.6110643141573624e-01 6.8074447674991712e+00 5.1193859446779513e+00 6 55 71
118 1 3.0822797622460762e+00 1.1266106147462517e+01 5.6783906565943685e+00 -29 129 -77
305 1 4.3934447951600245e-02 1.0346197615231825e+01 3.7636915765097240e-01 18 89 28
133 1 7.1477269191357848e+00 4.0126313402501861e+00 9.2764838931962021e+00 -35 68 -48
140 1 1.1850282056709645e+01 1.8471063001653718e+00 8.8909947161619609e+00 -64 27 -7
462 1 4.8749017761621198e+00 4.5593121165759101e+00 6.1752108699734451e+00 -65 12 36
286 1 3.3487046176461996e+00 6.1197483198263676e+00 4.2477330575947212e+00 47 -18 13
102 1 1.1784286020648844e+01 8.6388032296530408e+00 5.0980290777155552e+00 16 -12 21
37 1 2.6495153562606730e+00 2.9802842066866138e+00 4.1266831936213455e+00 53 27 -42
417 1 1.1379421137484295e+01 1.1685569646642380e+01 6.4896697925117346e+00 4 5 -18
245 1 4.2118744974781768e+00 7.6661319502799499e+00 1.0447394047593448e+01 -14 10 92
20 1 8.6704625374502520e+00 3.7204166910973888e+00 6.7430915862479495e+00 126 28 26
304 1 1.1435385714448280e+01 5.9506714757418733e+00 5.5955153668407203e+00 -20 -47 114
481 1 2.6886875268931885e+00 6.1439659431224225e+00 8.6943297211523181e+00 42 -22 -19
408 1 8.6266288463648184e+00 2.3392451626664950e+00 3.0415263987083434e+00 -130 21 55
502 1 8.7180987778016323e+00 1.0010541520040100e+01 1.0494007933019621e+01 -48 -34 -42
63 1 9.6998276659329221e+00 1.6959174050743704e+00 1.0906832069012927e+01 0 6 -92
117 1 5.5958487438528843e+00 1.5855425404880685e+00 1.2054601480209575e+01 55 44 95
459 1 1.1644458446663185e+01 5.8352682923408272e+00 1.0501855771851753e+01 64 -24 47
216 1 1.0037061278022975e+01 1.4103503631443888e+00 7.1981156929353207e-01 -41 0 160
325 1 6.9005292143865411e+00 1.2025757352346503e+01 6.5719309755521511e+00 -89 35 37
202 1 9.7715172545904441e+00 1.1714448757477971e+01 2.1533774789622107e+01 22 86 -24
341 1 9.3032808113579257e+00 2.9025193708822314e+00 1.9485410998142271e+01 38 -30 67
18 1 3.3286243430817928e+00 8.2181268404277965e+00 2.0806403063705716e+01 56 56 47
323 1 4.3821488715002821e-01 3.0647210846830428e+00 1.6439555040192829e+01 18 -105 16
174 1 1.1014916199496511e+01 2.8777389122613544e+00 2.2840515688309459e+01 14 92 -22
396 1 8.4195578502754875e-01 6.2319597344848416e+00 1.3678545411084722e+01 5 3 17
83 1 1.1550853695441765e+01 1.0003506830466378e+01 1.8089527721126757e+01 35 4 -3
115 1 2.7869013436688070e+00 1.0632115173016315e+01 1.7449865226134378e+01 73 -156 34
283 1 2.0156764944173138e+00 6.0099293139234744e-01 1.6534881934712963e+01 95 -36 69
250 1 6.6769295539540456e+00 3.5109803623321310e+00 1.3452605871177889e+01 -5 15 169
367 1 4.3694372074439158e+00 2.1574604758158158e-01 2.0514597400899177e+01 9 5 65
330 1 2.9364152130654713e+00 4.1467539216064768e+00 1.7311629257066379e+01 -8 22 48
107 1 7.0175862957204549e+00 8.6457727843090399e+00 1.8416077884497199e+01 -28 59 -149
251 1 1.8285146063034943e+00 1.0493514630722018e+01 1.3472870173085433e+01 -38 27 -51
407 1 1.1111509472262910e+01 5.9134918469620432e+00 1.6825677639792609e+01 15 14 58
471 1 1.0422862857382984e+01 2.9983584406897572e+00 1.7174203149379345e+01 -83 -17 19
363 1 9.2414036515674773e+00 4.4776503840836375e+00 2.4131911648853148e+01 -7 -34 17
309 1 5.6662454337754928e+00 9.2519246711971110e+00 2.3706555219535502e+01 58 63 -48
76 1 9.0652595336474366e+00 5.7904784603800046e+00 1.4736040366544099e+01 31 34 16
80 1 7.5638423261295671e+00 4.9938280633504695e+00 2.2059965137578992e+01 38 45 17
166 1 2.9853345697840088e+00 1.0200281395388782e+01 2.3537661087329106e+01 30 -11 -25
109 1 8.9059170204530940e+00 1.0252595278150432e+01 1.4620743398310418e+01 -89 -27 -47
457 1 9.6620019900771599e+00 3.6599555279299811e+00 1.2754751910349338e+01 -14 -36 71
509 1 7.6568864013123816e+00 7.8818911515035301e+00 1.6004979820048344e+01 120 43 -79
131 1 1.0013071732954794e+01 1.1935806630132999e+01 1.6483210709741670e+01 8 -29 -15
298 1 1.1042365950516877e+00 9.2597861107658250e+00 1.9148252397799503e+01 6 39 1
430 1 6.4843721553721423e+00 2.9926471588811493e-01 1.8709979061338238e+01 61 45 1
507 1 5.2561265319611685e+00 7.7657569623779024e+00 1.4468405849956412e+01 -61 24 -23
453 1 5.2035199171671014e+00 1.0532223385367624e+01 2.1343057996216082e+01 58 -7 1
225 1 4.3234375616311889e+00 8.5413869504758644e+00 1.7971274342387566e+01 19 87 21
14 1 7.8719918129846080e+00 2.0463560510838663e+00 1.7173495080900707e+01 56 -25 37
150 1 7.6131496696252103e+00 2.1283205553416535e+00 2.3934023908689461e+01 79 -34 72
291 1 1.4698586129541158e+00 3.6282368887638468e+00 1.3466992395854117e+01 35 106 71
97 1 6.4506093081828260e+00 3.0101246920953266e+00 2.0693557097649361e+01 20 59 -18
40 1 3.8067242938415458e+00 3.0402053912038811e+00 1.9771252880809229e+01 8 42 67
146 1 6.3453355661792887e-01 1.1607539579718136e+01 1.5935264019892349e+01 -8 -11 2
292 1 9.9823536230315124e+00 8.8722534491217830e-01 2.1183177448246930e+01 -14 21 64
296 1 2.1227012019239591e+00 6.3635453471994516e+00 1.8926238129258074e+01 -40 -101 55
224 1 8.0568232493859568e+00 7.7718609573196291e+00 2.2994741546247191e+01 65 -88 1
293 1 4.9771460730471642e+00 5.9654536173330577e+00 1.6934233571034163e+01 14 125 50
170 1 3.9694702055309454e+00 3.5113884883871465e+00 1.4818490025217152e+01 8 40 -20
489 1 3.7151018345579492e+00 9.8285533936638831e+00 1.5047784185920854e+01 77 188 -36
449 1 7.8960137635706076e+00 6.9457395064228313e+00 2.0144845951033858e+01 -63 67 31
30 1 1.0526156614298829e+01 7.4017698457474523e+00 1.9354436918782881e+01 -81 5 -4
60 1 4.0128851075640410e+00 6.7958608482820448e+00 2.3360145132305433e+01 -61 -22 60
67 1 1.2227779722281261e+01 1.0477706807660349e+01 2.0767136776156576e+01 -23 -89 -34
159 1 7.3905433724496481e+00 6.0529213894513911e-01 2.1563135871264272e+01 -55 49 106
387 1 1.8675869789703601e+00 3.7649190676067219e+00 2.3978170899523924e+01 87 -33 115
134 1 1.0305133128886141e+01 1.9036444822328866e+00 1.4687077845743577e+01 -70 -11 15
132 1 4.7896299991406206e+00 1.3597661210007623e+00 1.6461004642368231e+01 -46 -1 -69
228 1 1.2177671015363455e+01 6.6440901927018610e+00 2.3547591307120953e+01 -39 16 16
235 1 7.1159707099029204e+00 4.8847452550526969e+00 1.8554429125556155e+01 25 -57 147
389 1 2.8067526809109613e+00 5.2609579222901015e+00 2.1491599568030828e+01 8 69 -25
371 1 7.5307645169299979e+00 1.1003942936832491e+01 1.9771174573317417e+01 -72 27 -63
27 1 1.1076479937544766e+01 1.1959150026856777e+01 2.4393364055096008e+01 9 -35 52
70 1 1.4271082310952543e+00 7.8635341895073605e+00 2.3970654149060557e+01 86 -2 12
413 1 1.0613517154101045e+01 8.4470444491866363e+00 2.2095565176149208e+01 -27 3 -31
463 1 5.1991311120833306e+00 1.2066509672308268e+01 1.4944823012639949e+01 -32 28 -46
240 1 1.0536883013646353e+01 9.3262645067192356e+00 1.2536229880344566e+01 -223 142 59
157 1 8.2659656166226601e+00 1.2130250519118254e+01 2.4184469699261619e+01 -10 -23 65
332 1 4.9394090800976960e+00 5.6396531598261008e+00 1.2922405293651366e+01 11 -25 -100
360 1 7.2949159187156332e-02 1.1804368900683649e+01 1.9845262718070671e+01 -86 -47 74
99 1 6.3190159474385661e+00 5.5778651013289426e+00 2.4766074975912545e+01 0 -4 34
13 1 9.6840357435076889e+00 1.4993763109483407e+01 1.0310174194315122e+01 131 -9 73
511 1 5.8493606183914784e+00 1.5878543429294840e+01 8.7839671936177375e+00 44 2 93
257 1 2.1877519330228261e+00 2.0507434556964959e+01 3.6958753441932433e+00 -15 12 51
433 1 2.1341348799688342e+00 2.3151065765209736e+01 4.1367616484175489e+00 14 -56 -44
432 1 5.4725409781213852e+00 1.8652753650385087e+01 1.1928685021298742e+01 37 -50 12
182 1 7.9396968134727279e+00 2.4573167567125289e+01 9.7096224309340187e+00 115 48 48
53 1 4.2911828562431866e+00 1.3199136524236597e+01 1.0793782293681831e+01 55 104 144
290 1 6.6110511094396296e+00 1.8728152105732022e+01 8.3471383342345575e+00 -8 -98 -84
398 1 1.0745819678509468e+01 2.3232097258425100e+01 5.2953171048821188e+00 -52 -27 5
442 1 6.6476422696762905e+00 2.2177103949945021e+01 5.5574277538656487e+00 27 -6 -104
198 1 8.3166660140324549e+00 2.3926579507246480e+01 6.7843373993256506e+00 -34 45 18
403 1 1.1420157586712481e+01 1.6160614861353451e+01 5.9525277317523715e+00 -72 49 10
351 1 5.2337470887786193e+00 2.1124839736464921e+01 1.0669771278368104e+01 30 -30 -66
196 1 2.7304721711820501e+00 2.2486082286016718e+01 1.0871420489162791e+01 10 20 18
447 1 1.3778711754034443e+00 2.1503262487812449e+01 1.2663865682625262e+00 -10 -112 27
311 1 1.2330120939034039e+01 2.4695175313175639e+01 1.4519812045345108e+00 11 -53 25
482 1 1.0970992705599301e+01 1.8475987858971479e+01 7.2400472762653383e+00 11 65 38
69 1 9.8277199615596231e+00 2.0624912518863184e+01 5.6956326579030909e+00 -16 9 6
6 1 1.0357159048024283e+01 1.9156881920755445e+01 1.1748404010680556e+01 85 19 -28
484 1 7.1772657414986429e-01 2.4246569692259484e+01 1.2331323969627466e+00 -40 -16 90
32 1 1.0409178882714039e+01 1.7736927139150211e+01 1.7169384235204261e+00 -51 112 -49
71 1 2.2601262591213706e-01 1.2998075753181814e+01 9.5177438514298451e+00 65 -74 -55
339 1 8.2339911042729685e+00 1.8933855876142928e+01 3.6693204248416729e+00 35 41 -4
50 1 8.9327630378934284e+00 2.3386057792800194e+01 1.2946315814126539e+00 14 28 -31
479 1 2.9421045213779555e+00 1.7716491150416097e+01 4.6671184615446952e+00 -27 -14 -46
129 1 7.2910954546803648e+00 1.7375351684796151e+01 5.8323418527342019e+00 -47 -40 -80
12 1 9.5228037660395048e-01 2.4503101398043661e+01 9.9399152464463860e+00 53 -40 67
414 1 7.1130800177361424e+00 2.1456788280378483e+01 2.9891209350225560e+00 107 11 50
336 1 8.1048456264039146e+00 1.4400908612320276e+01 1.0117859783893759e+00 48 -10 -123
72 1 1.1764085818724475e+01 2.2116056580224623e+01 2.9592694524261338e+00 20 58 43
505 1 6.8173360185721432e-01 1.8500893469532521e+01 9.9742410302870721e-01 1 34 -49
89 1 1.2033071927202259e+00 1.8404877870671008e+01 1.0916400116243413e+01 -14 15 -178
238 1 3.7216682021586340e+00 1.8831946722909990e+01 9.4752155579866848e+00 58 13 -19
68 1 3.4686333738332373e+00 2.0142094300509555e+01 7.1642500056933160e+00 1 -27 7
137 1 1.1109123815048010e+00 1.3225382625454872e+01 4.8462996418255821e+00 -4 -25 56
246 1 4.6412740840733262e+00 1.3685757385609236e+01 5.7096327589594509e+00 75 59 98
121 1 5.0377280267322559e+00 2.1511038860991896e+01 1.3091978649979328e+00 -5 -2 10
56 1 5.4156818569145209e+00 1.6230048242285562e+01 4.4827349621664334e+00 -12 85 25
3 1 1.5939235618659451e+00 1.2697713455334560e+01 1.1902225327273339e+01 13 53 25
421 1 7.3949634854363593e+00 1.3623555500529953e+01 8.9866653546267674e+00 13 -2 83
373 1 1.1664592278159203e+01 2.4050490235261250e+01 1.0963052291233037e+01 49 31 -49
436 1 3.3788843886608859e+00 1.4290762065028382e+01 8.1679214449758444e+00 41 78 22
333 1 9.1742088240346185e+00 2.2435175444214536e+01 1.1297770598126636e+01 14 31 27
316 1 1.9935969969735783e+00 1.7025338912794652e+01 8.5274156643788288e+00 39 118 70
490 1 5.7408649672737635e+00 2.1371869121420744e+01 7.9201823465962153e+00 11 -98 -3
279 1 5.5966754338482883e+00 1.5921294029599084e+01 1.1422406269039596e+01 -34 168 52
90 1 9.0454717994148730e+00 1.5341709825371687e+01 4.4147194668050718e+00 -53 -36 -74
358 1 4.5344880393057672e+00 2.3979268623887137e+01 5.5458899123428322e+00 -23 93 41
116 1 7.6827225715690317e-01 1.6707946235631496e+01 6.1331863382874454e+00 -49 3 0
36 1 5.5174518673193029e+00 1.5667894127368440e+01 1.6815553282287989e+00 117 76 122
193 1 3.0634144487540436e+00 1.7174121556805879e+01 1.8190740615886321e+00 -79 12 -3
147 1 7.9809286492705427e+00 1.9895898814797476e+01 1.0507568845482647e+01 -26 31 94
441 1 1.0053921085543546e+01 2.0500892288198294e+01 1.5732146325162686e+00 -8 -75 -17
382 1 9.3894960528824072e+00 1.7581217510443231e+01 9.2802563601358816e+00 40 -14 63
391 1 1.0753198176357827e+01 1.2958331091146208e+01 1.9949132350290819e+00 -78 -36 -9
213 1 1.2562803874510777e+00 2.1197694002161121e+01 8.7234517386445400e+00 -49 -10 24
429 1 6.9376057778913562e+00 1.8206567591702360e+01 1.0564631228883163e+00 -30 -43 42
178 1 2.2076805023652275e+00 1.4338109280994260e+01 2.4963410392363086e+00 71 19 -59
397 1 1.1836936866490005e+01 1.5432774531857438e+01 2.9620762156949931e+00 -43 54 -45
41 1 1.0028858536906300e+01 1.2446822193783960e+01 8.9709892874777530e+00 72 -7 37
328 1 6.0891203558784390e+00 1.3195154693531952e+01 3.0058515542794373e+00 71 80 -14
239 1 1.2140512835971982e+01 1.6162303617004738e+01 2.4288848047776598e-01 45 -16 17
130 1 1.6222510600904491e-01 1.5627135598816777e+01 1.0468409074792392e+01 -15 -35 3
273 1 9.1365903105184643e+00 1.2545345772232467e+01 5.0599092975952269e+00 74 175 114
221 1 4.4386980606093278e+00 1.9104355949302175e+01 2.7897191895506179e-01 -1 -2 40
44 1 6.9545072073075520e+00 1.5666961864478067e+01 2.1944307119482282e+01 -28 -32 90
51 1 7.7132161018842806e+00 1.2553009089285268e+01 1.3722301241377584e+01 37 -1 -42
289 1 4.8930997740600670e+00 1.2728444300527542e+01 1.7479341843865058e+01 -20 -11 -57
320 1 1.8360413963451181e+00 1.5629269426098235e+01 1.8284717425091713e+01 30 89 39
254 1 4.1139980805341168e+00 1.2972154187471777e+01 2.0423001734929208e+01 45 90 38
356 1 4.4500765502965196e+00 1.4457854547611303e+01 1.3430143248858514e+01 -55 4 -1
510 1 1.6494772443866983e+00 2.0429042835617693e+01 1.9605374092080943e+01 -65 136 31
128 1 1.2084364357465228e+01 2.4607166877993542e+01 1.3542578626496018e+01 20 -3 -32
295 1 8.2953130692562240e+00 1.5661721684004965e+01 1.6330476981941253e+01 -37 -11 -14
327 1 4.9091055250451516e+00 2.0765871573232630e+01 1.5815187633747419e+01 91 -3 2
399 1 3.7037573880006662e+00 2.1635370467991791e+01 1.8402920636235073e+01 25 68 -6
138 1 2.8620806918064239e+00 1.6888429286012645e+01 2.3577944464866007e+01 182 34 8
319 1 7.3042444830776541e+00 1.7257695952148595e+01 1.8663275831082395e+01 -33 -1 42
143 1 5.5755830460619578e+00 1.6012270046227506e+01 1.5510944190303414e+01 40 1 -4
346 1 3.0541581938336249e+00 2.1651445545856760e+01 1.3716041257579912e+01 51 30 -121
455 1 9.3532599148732984e+00 1.7088224112113707e+01 1.4158599697854083e+01 48 109 26
154 1 1.3349138911331053e+00 1.5931929157172123e+01 2.0825990947775672e+01 98 -30 -4
229 1 4.3803114565157610e+00 2.0382542581870602e+01 2.2533648014672465e+01 48 18 22
197 1 6.8198820440923233e+00 1.9062724780212804e+01 2.0585220563898773e+01 15 27 48
124 1 6.5448661704860545e+00 1.8311516193807208e+01 1.4505776602517559e+01 -55 163 -29
98 1 3.9357974786148722e+00 1.8180779490149639e+01 1.7400626237275645e+01 74 71 -2
247 1 7.7757179359210378e+00 1.2940147267453549e+01 1.7843941685350188e+01 18 -14 16
456 1 7.0588645387664306e-01 2.1211204526492303e+01 1.4810336277559021e+01 -30 -36 11
337 1 3.9456833112800984e+00 1.8637672129453875e+01 2.0215552077536351e+01 18 7 -33
199 1 1.1725497574562359e+01 1.5293407148718744e+01 1.3841279791894042e+01 18 74 -18
74 1 1.0864838875570838e+01 1.8168706203534320e+01 1.7251389560450761e+01 1 56 -14
148 1 3.4026940281115450e+00 2.4415154334094254e+01 1.4069122228326254e+01 -53 50 72
1 1 1.0201938843119590e+01 1.8606431714691844e+01 1.9935622736889833e+01 -44 -40 61
200 1 1.0473668808706741e+01 2.4042366962821539e+01 2.3580527715482752e+01 59 84 -24
61 1 6.0954033121135796e+00 1.3091073739624596e+01 2.2558959638703641e+01 94 -61 96
204 1 9.3019758826458627e+00 2.2266842421908571e+01 1.3943361471792622e+01 11 -24 -175
77 1 8.3253630417242626e+00 1.5047427477835267e+01 1.9678223531713328e+01 53 -31 13
258 1 6.3399190019952112e+00 2.1805699029538204e+01 1.3705160569573430e+01 115 -55 65
112 1 2.4443986959833732e+00 2.2386382177399099e+01 2.3416838671990078e+01 19 92 -36
300 1 1.0405362927768127e+01 2.2095885566785093e+01 1.9615389459255184e+01 -73 62 32
220 1 5.5909376577652630e+00 2.2235099598228572e+01 2.0944242565447091e+01 53 -5 -7
58 1 1.2352380182568863e+01 1.3152174992877329e+01 2.0460678681659232e+01 0 -5 -4
374 1 2.7958229044671135e+00 1.8639091198051034e+01 1.3037032094407333e+01 -5 41 0
435 1 1.5298241746551373e+00 1.7476463516076002e+01 1.6658538527714235e+01 -43 -18 -20
498 1 8.2604789792833699e+00 1.9288322691253349e+01 1.6574140749030263e+01 29 16 3
184 1 1.0483508181276189e+01 1.9650138935648997e+01 1.4586022932796000e+01 3 9 36
185 1 1.2039127008890953e-01 2.1120200448189337e+01 2.2165830626468299e+01 1 10 -4
450 1 4.0885196762982945e+00 1.4113833895235222e+01 2.4151240230932316e+01 113 -90 28
343 1 4.1473651897033132e+00 2.4376079186841309e+01 2.3423197705969294e+01 -61 19 147
175 1 6.5332537883206223e+00 2.0674443910718857e+01 1.8279621690776352e+01 37 3 -17
243 1 8.2984580853324932e+00 2.3115904443225482e+01 1.8045636729819421e+01 15 -37 -24
331 1 1.2128758814322998e+01 2.4110806353798417e+01 2.0081541294029797e+01 30 12 -15
349 1 4.8671640444066675e+00 1.5626076471564588e+01 1.8106633126119149e+01 -11 28 51
406 1 1.1750485739317780e+01 2.2343701225337306e+01 1.5465964131330873e+01 40 137 -3
342 1 2.5407880149046078e+00 2.4040040475764357e+01 1.8777231415363666e+01 32 -1 12
104 1 4.2469571863900307e-01 2.0124537713664793e+01 1.7219907196368716e+01 84 20 -20
353 1 7.9230651877471523e+00 2.2905434752293822e+01 2.2512337576019895e+01 -166 66 104
460 1 8.9436970791689046e+00 2.0618547681989007e+01 2.1257977363378401e+01 -109 127 33
223 1 4.1971024370158210e+00 1.6018294260758282e+01 2.1026566134190411e+01 107 40 3
139 1 1.2172182959952565e+01 2.0636782988378854e+01 1.7868123716548169e+01 -12 -1 -26
394 1 6.1968296188663050e+00 2.4451833377534960e+01 1.4296304354158076e+01 -110 -2 -22
222 1 2.1811757507352865e+00 1.6297938949072879e+01 1.4185461427493768e+01 20 60 43
205 1 1.0536053367495928e+01 1.9928302561266143e+01 2.3570469531454677e+01 -28 -18 -63
144 1 8.7368314882122871e+00 2.4396496268329940e+01 1.5579615529878440e+01 -19 29 57
329 1 1.0667681192938112e+01 1.7266202648690332e+01 2.3146998928385948e+01 5 -128 -59
163 1 1.1145037518943461e+01 1.6014592239456796e+01 2.0892246062192783e+01 -40 -63 2
512 1 1.6448342606580244e+00 1.3040318593066758e+01 2.1492429269748854e+01 -27 -25 91
25 1 8.1380183528326562e+00 1.6599875712138385e+01 2.4140957349464784e+01 55 -76 -53
5 1 1.7098851083931069e-01 2.4019814843147714e+01 1.9906188860494673e+01 48 42 -1
167 1 6.3380626605781911e+00 2.3463977879148437e+01 2.4602505723247234e+01 29 -12 3
149 1 1.1919929328947578e+01 1.3650427894823174e+01 1.5971294557241778e+01 -53 57 -4
383 1 1.4839183029837379e+00 1.2748598258485220e+01 2.4425148468435289e+01 -39 89 -26
172 1 8.1857654050607138e+00 1.5196551803442420e+01 1.2720340923650209e+01 -28 -110 38
52 1 3.5176320771213909e-02 2.3955763825117671e+01 2.2759777873497669e+01 104 -87 135
491 1 9.6214637186953667e-02 1.7060442178456015e+01 2.3393584115996440e+01 -44 -29 -21
335 1 1.8432879113231593e+01 2.8615896195851276e+00 9.1961773385294698e+00 16 -19 96
440 1 2.3259721635120172e+01 4.9315440243344142e+00 3.9310125876417250e+00 -26 -34 121
114 1 1.9035094748754439e+01 8.3851643196708245e+00 1.1961142172051648e+01 -12 10 -18
393 1 1.5649814412752344e+01 5.0522193168652771e+00 2.7909309628893579e+00 89 38 -82
420 1 1.4253083649136004e+01 1.1589446002485309e+01 6.1377742433748645e+00 32 -33 116
473 1 1.3188579722529818e+01 2.1592058950890789e+00 5.2978700343870573e+00 -40 -23 68
359 1 1.8239425837113224e+01 5.2924412424969027e+00 1.0747589328675094e+01 -42 55 5
183 1 2.0046874409428845e+01 1.2190000214519257e+01 1.1130837215870970e+00 28 86 18
466 1 2.2503401334210579e+01 1.1017284939560948e+01 1.9920114751235232e+00 108 -28 -27
91 1 2.2772730611737799e+01 6.8574633910474392e-01 4.3592785028974657e+00 -25 0 19
299 1 1.9237860944117877e+01 1.1658143130375461e+01 1.2244254639693407e+01 47 8 55
264 1 2.4643169612752239e+01 6.1150861081353893e+00 1.0053960819728285e+01 -105 27 39
362 1 1.9908890736684192e+01 5.2346859242768806e+00 8.2655961946754815e+00 -56 -22 -65
269 1 2.3128535476640650e+01 8.9924945808285994e-01 1.8216691653827044e+00 24 -36 -1
38 1 1.5186219396049045e+01 2.3492558737110896e+00 3.3182211424305104e+00 -27 51 -17
82 1 2.1011806516477044e+01 1.2486295548338180e+00 9.9402802758968374e+00 -6 -8 7
427 1 1.5974542441780212e+01 2.1924079533686402e+00 7.5491903791720087e+00 120 -14 22
218 1 2.1350206682329691e+01 1.0689098841131466e+01 6.0984551763910728e+00 -56 -11 -23
384 1 1.8380045441192166e+01 4.3826098172259771e+00 1.6995635186134295e+00 -3 8 5
412 1 2.2775330320212738e+01 3.6105424186050143e+00 1.3350843334607030e+00 -25 19 -65
153 1 1.6379419518250209e+01 7.0913466183994771e+00 1.2335667675621989e+01 2 -23 84
477 1 1.5821171719672893e+01 1.0512114698691910e+01 3.9787951203427272e+00 31 -11 41
419 1 2.4767708680038638e+01 5.3590596229644953e+00 7.2967958104096793e+00 42 18 10
42 1 1.3376872796233341e+01 9.4961710044514032e+00 2.6106032499407048e+00 -3 66 -60
176 1 1.6058158075940646e+01 1.0061606390227556e+01 9.6612770583426091e+00 -94 -88 -32
232 1 1.6702933091959338e+01 1.2038919493406759e+01 1.1717885433413894e+01 84 35 34
366 1 2.1934686201507944e+01 8.0979597691169616e+00 2.2416647268785872e+00 156 -4 -55
303 1 2.2678790287910530e+01 1.1683061508296950e+01 8.6899522922682166e+00 21 -2 196
255 1 2.3525838073073558e+01 9.2514233579005509e+00 7.1922327227092007e+00 -134 9 82
142 1 1.8522453733707650e+01 8.9683841896720331e+00 8.7082420891659194e+00 28 20 51
288 1 1.8117634784506002e+01 6.9642378941931078e+00 6.9458651826835593e+00 -65 -23 -82
190 1 1.8102052637403574e+01 1.2388162173525730e+01 4.5744185854627304e+00 94 93 23
400 1 1.9638356327917052e+01 3.1954586138099972e-01 6.0267354702555398e-01 60 21 -25
64 1 2.1433058029561671e+01 6.5729699487006661e+00 4.5612915365287359e+00 -41 57 20
426 1 1.8096616362320816e+01 7.2019804232159270e+00 1.3402563642591987e+00 82 -4 61
446 1 1.8993301289894831e+01 5.0491753152165009e+00 4.5098632047320066e+00 21 30 -18
340 1 1.9358573015181896e+01 2.9828589119709341e+00 6.3329428186665870e+00 52 38 17
281 1 1.9517042307931092e+01 1.2277589530206740e+01 7.2806842811383401e+00 41 -30 109
418 1 2.0179034351993351e+01 1.0824576037310351e+01 9.7921277285580821e+00 -69 -69 -14
312 1 1.5769300025440502e+01 6.5931553739526088e+00 5.7211690686043974e+00 -7 20 18
164 1 2.2271578642114996e+01 6.6672020099619385e+00 7.3744463433123011e+00 48 23 138
372 1 1.3953087660613246e+01 4.3551058720677034e+00 6.8061008620021655e+00 8 4 18
180 1 1.7128956912682888e+01 8.2188752287724078e+00 3.7218670073285525e+00 -1 289 -30
390 1 2.2161798169929355e+01 2.9869412383314287e+00 5.2782627796171671e+00 -19 -44 -19
66 1 1.4355409400366796e+01 6.7725082163710306e+00 1.0446375660781680e+01 -15 39 -34
85 1 2.0362774062139650e+01 2.9557933400283773e+00 2.8460744028004747e-01 22 43 -101
470 1 1.3994564030541413e+01 8.9280421527867802e+00 6.2134271659324707e+00 25 -33 -121
301 1 1.8375545067017704e+01 9.9005585862447703e+00 8.5853997472146804e-01 108 31 30
187 1 1.4074784671730448e+01 2.1781590536367714e+00 1.0999683859524177e+01 2 21 -9
262 1 1.5188917311013405e+01 1.8828428698756067e-01 1.8346305043245394e+00 8 57 -40
465 1 1.3558606865137142e+01 5.2438203004673776e+00 7.2022587412156924e-01 29 44 36
195 1 2.2783179346930162e+01 2.4603161696710560e+00 7.8129530219613024e+00 -22 -6 80
87 1 2.4610278077912078e+01 7.0809718055170023e+00 2.1961195401235769e+00 -11 40 83
377 1 1.6124090070010794e+01 5.6049531854023158e+00 8.4622730097466423e+00 18 12 -110
62 1 1.9658782673517585e+01 8.6480704601207634e+00 5.1445719764224860e+00 70 -16 -50
57 1 1.7364807991989068e+01 1.6625415444014324e+00 4.9104929052956621e+00 -30 -2 33
401 1 2.3318997491477639e+01 1.1631823824564528e+01 4.6070523251428375e+00 32 5 23
266 1 1.5719723317151521e+01 1.1119605075022260e+01 1.3783025266419340e+00 34 -61 16
380 1 2.1455625601923991e+01 3.4771862016267154e+00 1.1376706704962961e+01 -10 88 59
73 1 1.3389768827651793e+01 8.8930603187609343e+00 9.1573648106394945e+00 -53 4 22
101 1 2.1810039851987376e+01 5.8101245154152759e+00 1.0269227742676341e+01 -31 -15 65
284 1 2.4667630187087212e+01 5.5658383214797267e+00 6.3440803805798918e-02 -79 -58 -6
313 1 2.0491600113081752e+01 6.9253207964683705e+00 5.5035067497757398e-02 -52 31 34
285 1 1.3955239659311983e+01 1.3345284898620863e-01 2.2007069844922036e+01 -26 74 -14
326 1 1.6934689663178929e+01 5.7695703775562661e+00 2.1791861828457577e+01 36 116 -11
402 1 2.1017389597083138e+01 5.2043815650712713e+00 2.1356765668830910e+01 37 51 -30
480 1 1.8076532980978726e+01 1.2344687491514096e+01 1.6772272603426991e+01 12 -59 72
188 1 2.0669370046979616e+01 2.8582748581820403e+00 1.8420732986831062e+01 9 5 62
364 1 2.2696475235738987e+01 1.1095220754963529e+01 2.3631960363660951e+01 102 20 -6
253 1 1.6952500625216523e+01 1.0219725722606222e+01 1.5352613314601932e+01 -2 18 -3
474 1 1.3973292520439582e+01 3.4218010097161873e+00 1.7748631842474019e+01 -13 -60 -36
271 1 2.3612206499106570e+01 2.5693064428265124e+00 1.2731806164454996e+01 40 27 -51
472 1 1.7654978784686918e+01 3.6100226419703780e+00 1.5697990525321668e+01 26 -27 66
503 1 2.1667312396501721e+01 8.2237017220172408e+00 1.8747726846268698e+01 -6 6 25
352 1 1.5574881001581472e+01 1.0232274961569587e+01 2.2775691345105692e+01 43 -35 -70
416 1 1.9776662215844219e+01 3.0128092568286933e+00 1.3685527647726715e+01 -3 -32 27
275 1 2.4698428644633488e+01 4.6080503216982800e+00 2.2210937503891074e+01 28 -5 20
487 1 1.7670029474133244e+01 2.9116431135124223e+00 2.2114538357854777e+01 44 35 -5
234 1 1.8376474100440269e+01 9.6879853064085140e+00 2.2688341655217513e+01 72 -15 18
500 1 1.3402963102825687e+01 2.5594480795650183e+00 2.4417378289106786e+01 80 -68 65
488 1 1.6456363551915942e+01 1.1173640305191928e+00 1.5339615660887672e+01 -22 -19 24
280 1 1.9800007008252898e+01 9.3691286161553204e+00 1.7197366638297716e+01 16 -43 146
237 1 1.2463392848040158e+01 1.1761463765892977e+00 1.8342483193100513e+01 22 -25 -27
43 1 2.2451300004773792e+01 2.5351137246005413e+00 1.5272356490668193e+01 -14 -4 13
268 1 1.5119148444623320e+01 9.5327885053497846e-02 1.8034618343734763e+01 -115 0 -9
485 1 2.3626531900082504e+01 7.2348153197963887e+00 1.5377206793616304e+01 -9 -5 84
493 1 2.2458573128729007e+01 9.3370602468835884e+00 2.1192546123855216e+01 -52 95 43
318 1 2.3517503645548686e+01 2.6386360605803389e+00 1.8409842236933244e+01 34 6 150
219 1 1.5916366333374253e+01 5.7863383783918909e+00 1.4718761634105125e+01 -26 -15 -98