mW.lmp - created by mBuild; units = real

512 atoms
0 bonds
0 angles
0 dihedrals
0 impropers

1 atom types

0.000000 23.871200 xlo xhi
0.000000 23.871200 ylo yhi
0.000000 23.871200 zlo zhi

Masses

1	18.0153	# H2O

Atoms

1	0	1	0.000000	2.422247	2.294395	20.232692
2	0	1	0.000000	13.772036	6.432445	15.809095
3	0	1	0.000000	18.874820	7.328984	12.964540
4	0	1	0.000000	0.065079	4.915767	14.845094
5	0	1	0.000000	7.057786	13.762467	14.780765
6	0	1	0.000000	12.985454	9.556997	0.470379
7	0	1	0.000000	13.849295	0.087931	5.547560
8	0	1	0.000000	10.517734	20.112263	12.520356
9	0	1	0.000000	10.405589	11.853361	5.202164
10	0	1	0.000000	3.212269	1.417820	4.923574
11	0	1	0.000000	21.075305	0.646396	5.194419
12	0	1	0.000000	5.587199	1.576794	10.869500
13	0	1	0.000000	8.198626	21.868855	12.629465
14	0	1	0.000000	6.185491	12.332019	6.870059
15	0	1	0.000000	3.046528	0.002692	19.222262
16	0	1	0.000000	15.016846	10.163362	11.211490
17	0	1	0.000000	1.862494	15.444201	14.508449
18	0	1	0.000000	3.854251	10.791020	14.356364
19	0	1	0.000000	11.058106	9.362538	16.150636
20	0	1	0.000000	18.848156	14.393037	0.447046
21	0	1	0.000000	3.439121	3.715691	0.926258
22	0	1	0.000000	9.053125	8.249511	7.285754
23	0	1	0.000000	9.288847	17.960819	5.878225
24	0	1	0.000000	17.109242	3.541169	18.030167
25	0	1	0.000000	4.766998	21.866430	8.653290
26	0	1	0.000000	5.369510	4.433372	8.588199
27	0	1	0.000000	14.140000	3.304299	8.641256
28	0	1	0.000000	14.051113	16.408159	16.592345
29	0	1	0.000000	4.884774	18.829808	11.884718
30	0	1	0.000000	4.765237	2.119960	2.110997
31	0	1	0.000000	14.723191	6.918075	1.370999
32	0	1	0.000000	16.858905	10.349787	4.821746
33	0	1	0.000000	6.411787	21.848840	10.548616
34	0	1	0.000000	20.978943	3.309013	7.896765
35	0	1	0.000000	9.813130	20.929651	6.204154
36	0	1	0.000000	11.510784	7.215462	15.984714
37	0	1	0.000000	8.539461	7.071387	13.210789
38	0	1	0.000000	7.254663	3.156313	20.061833
39	0	1	0.000000	15.252147	14.171064	5.743546
40	0	1	0.000000	2.862725	3.533618	14.889874
41	0	1	0.000000	16.302788	5.326202	1.936947
42	0	1	0.000000	15.873810	14.718289	0.321820
43	0	1	0.000000	19.721401	12.407395	15.164846
44	0	1	0.000000	17.095241	17.151858	1.629416
45	0	1	0.000000	1.443489	2.261483	6.574319
46	0	1	0.000000	0.570012	12.422206	11.687542
47	0	1	0.000000	11.669534	5.078171	19.103273
48	0	1	0.000000	10.448246	18.216368	15.273928
49	0	1	0.000000	7.730448	10.636540	3.797314
50	0	1	0.000000	18.950475	20.433836	13.800744
51	0	1	0.000000	6.336446	2.277366	12.962002
52	0	1	0.000000	7.004334	13.963368	4.386212
53	0	1	0.000000	20.016979	5.165799	12.107902
54	0	1	0.000000	14.735973	2.384608	13.571009
55	0	1	0.000000	0.170469	5.180074	0.129416
56	0	1	0.000000	15.628670	21.115641	1.790218
57	0	1	0.000000	9.303615	1.082690	12.979136
58	0	1	0.000000	14.509367	18.411465	20.573093
59	0	1	0.000000	6.217296	18.717645	17.707026
60	0	1	0.000000	6.566975	8.972477	10.556239
61	0	1	0.000000	17.999911	19.017705	2.716297
62	0	1	0.000000	14.872179	13.138596	20.373556
63	0	1	0.000000	13.120317	17.536286	5.838562
64	0	1	0.000000	2.108633	3.547016	11.194467
65	0	1	0.000000	5.236029	7.180140	10.938481
66	0	1	0.000000	3.517292	18.326226	10.045740
67	0	1	0.000000	3.040135	13.861204	21.869599
68	0	1	0.000000	4.965324	8.880087	4.576331
69	0	1	0.000000	8.614273	3.391479	12.590269
70	0	1	0.000000	20.531382	6.837057	21.869682
71	0	1	0.000000	4.840541	9.996979	8.310141
72	0	1	0.000000	18.239148	8.556595	2.979354
73	0	1	0.000000	15.530089	18.733001	1.876918
74	0	1	0.000000	5.487951	9.804113	2.257126
75	0	1	0.000000	4.152638	5.945105	4.653360
76	0	1	0.000000	15.526856	21.501398	11.204173
77	0	1	0.000000	18.822447	6.382847	17.785304
78	0	1	0.000000	6.920897	0.003768	13.833376
79	0	1	0.000000	5.089060	2.208519	0.003446
80	0	1	0.000000	14.145698	19.563924	16.840638
81	0	1	0.000000	18.787235	16.164170	8.152264
82	0	1	0.000000	12.880061	15.307615	19.076177
83	0	1	0.000000	10.955391	8.512587	12.093955
84	0	1	0.000000	10.314813	5.198837	17.328564
85	0	1	0.000000	0.753070	20.450516	6.609783
86	0	1	0.000000	0.366675	19.001226	18.905933
87	0	1	0.000000	1.698714	14.464626	19.168754
88	0	1	0.000000	17.636166	4.003506	3.473060
89	0	1	0.000000	14.625147	14.195246	7.892821
90	0	1	0.000000	21.810855	14.214987	8.781733
91	0	1	0.000000	7.776990	-0.027416	20.764227
92	0	1	0.000000	21.869740	11.842417	6.341663
93	0	1	0.000000	9.519540	20.764917	16.639459
94	0	1	0.000000	21.639919	1.506493	9.722300
95	0	1	0.000000	2.413935	17.045758	1.508572
96	0	1	0.000000	14.182135	7.632115	10.547076
97	0	1	0.000000	7.734419	2.690967	9.094414
98	0	1	0.000000	18.339067	19.040483	16.768122
99	0	1	0.000000	21.247694	4.618562	0.446699
100	0	1	0.000000	10.629939	1.085239	1.800292
101	0	1	0.000000	19.106144	11.211606	4.191128
102	0	1	0.000000	9.792755	11.868675	20.989935
103	0	1	0.000000	4.092721	1.728216	13.042461
104	0	1	0.000000	12.316426	6.279191	8.441963
105	0	1	0.000000	21.869612	12.630081	18.724170
106	0	1	0.000000	12.144246	13.789528	9.925154
107	0	1	0.000000	17.395573	17.485622	11.729675
108	0	1	0.000000	1.512437	16.837041	4.132000
109	0	1	0.000000	8.041158	1.570030	14.787239
110	0	1	0.000000	5.677070	13.813545	17.337427
111	0	1	0.000000	15.530739	8.451018	9.000371
112	0	1	0.000000	7.211758	1.459862	18.452775
113	0	1	0.000000	21.721303	17.502056	1.594441
114	0	1	0.000000	11.047263	15.464803	15.502275
115	0	1	0.000000	14.791816	16.935468	0.776384
116	0	1	0.000000	20.830724	20.778748	8.699670
117	0	1	0.000000	8.933019	2.986753	5.022920
118	0	1	0.000000	9.626259	2.799136	7.152552
119	0	1	0.000000	1.105325	14.040884	16.041994
120	0	1	0.000000	17.129074	5.601617	21.936457
121	0	1	0.000000	10.847201	5.460863	6.187748
122	0	1	0.000000	9.810534	6.759219	1.324458
123	0	1	0.000000	21.722474	17.833001	4.761188
124	0	1	0.000000	21.781944	8.119418	6.272716
125	0	1	0.000000	15.073904	5.140918	20.436580
126	0	1	0.000000	0.372462	13.746575	6.673506
127	0	1	0.000000	16.303064	13.739458	16.065834
128	0	1	0.000000	20.192159	12.862584	5.366637
129	0	1	0.000000	0.840797	16.214735	12.115418
130	0	1	0.000000	16.178008	7.231604	3.197028
131	0	1	0.000000	11.036955	19.680596	0.455114
132	0	1	0.000000	20.273322	9.660138	2.794840
133	0	1	0.000000	2.988434	11.767442	9.854310
134	0	1	0.000000	6.144599	6.818247	0.007484
135	0	1	0.000000	12.400658	11.815985	0.559248
136	0	1	0.000000	10.968158	18.807133	17.442522
137	0	1	0.000000	0.764818	12.136915	17.438110
138	0	1	0.000000	0.225408	19.822148	2.719710
139	0	1	0.000000	4.449130	14.711442	8.990043
140	0	1	0.000000	8.581783	19.306027	11.843388
141	0	1	0.000000	8.190059	15.749654	14.176715
142	0	1	0.000000	2.267231	11.025320	20.920658
143	0	1	0.000000	10.701789	11.843878	7.427413
144	0	1	0.000000	4.871290	20.869345	16.874126
145	0	1	0.000000	10.897588	9.058671	8.790625
146	0	1	0.000000	14.733014	10.495082	5.409467
147	0	1	0.000000	15.978200	5.554423	18.112387
148	0	1	0.000000	7.621483	3.795836	14.711988
149	0	1	0.000000	11.721507	6.457199	11.382686
150	0	1	0.000000	14.674825	1.235082	7.697811
151	0	1	0.000000	8.041397	4.942020	17.059257
152	0	1	0.000000	20.755794	13.468262	3.093296
153	0	1	0.000000	5.152302	12.887190	13.444423
154	0	1	0.000000	14.448209	1.154081	10.285232
155	0	1	0.000000	4.160059	17.552345	4.714123
156	0	1	0.000000	17.647951	6.223939	4.675898
157	0	1	0.000000	7.106469	0.985833	4.455747
158	0	1	0.000000	16.181823	6.339446	16.065639
159	0	1	0.000000	12.730944	12.279686	5.035962
160	0	1	0.000000	3.497889	9.688689	10.738782
161	0	1	0.000000	8.530085	1.900900	21.502451
162	0	1	0.000000	5.306852	17.458199	15.989914
163	0	1	0.000000	8.747375	11.841420	10.870271
164	0	1	0.000000	18.587049	2.136181	14.242357
165	0	1	0.000000	9.593496	14.395506	10.368676
166	0	1	0.000000	18.288365	4.150003	0.231755
167	0	1	0.000000	5.171430	16.305188	3.064796
168	0	1	0.000000	8.191164	1.286294	0.980357
169	0	1	0.000000	12.021967	17.039148	21.186226
170	0	1	0.000000	21.082162	13.377631	12.076569
171	0	1	0.000000	13.650001	20.001966	0.286371
172	0	1	0.000000	13.297602	0.767458	21.025454
173	0	1	0.000000	13.380476	3.229394	5.888936
174	0	1	0.000000	8.568843	17.036818	20.393496
175	0	1	0.000000	2.046905	11.566236	0.305588
176	0	1	0.000000	20.534259	3.386024	20.680425
177	0	1	0.000000	5.450701	15.659739	14.470785
178	0	1	0.000000	9.549538	7.368432	9.462443
179	0	1	0.000000	1.392904	7.056377	7.510143
180	0	1	0.000000	12.428320	20.981391	8.351007
181	0	1	0.000000	4.935349	12.558614	9.043517
182	0	1	0.000000	13.621441	21.840039	16.400527
183	0	1	0.000000	12.754845	16.672710	14.822141
184	0	1	0.000000	7.223793	2.621608	6.365198
185	0	1	0.000000	21.016315	3.736563	3.269661
186	0	1	0.000000	13.733919	6.121860	12.396799
187	0	1	0.000000	11.004386	4.895768	12.770333
188	0	1	0.000000	21.096821	10.363133	18.901555
189	0	1	0.000000	2.065400	19.249496	20.778012
190	0	1	0.000000	0.004517	2.802392	0.686805
191	0	1	0.000000	8.191269	13.501260	12.485066
192	0	1	0.000000	11.724213	5.617814	3.027009
193	0	1	0.000000	16.025580	5.164852	13.075816
194	0	1	0.000000	11.870365	0.743035	10.451004
195	0	1	0.000000	14.839114	0.156839	3.361695
196	0	1	0.000000	17.772200	7.673087	6.745549
197	0	1	0.000000	17.790401	11.450335	21.749136
198	0	1	0.000000	8.043945	15.270587	6.748254
199	0	1	0.000000	10.982886	14.408355	21.869834
200	0	1	0.000000	15.177996	3.582341	11.027853
201	0	1	0.000000	12.876672	0.123875	14.464644
202	0	1	0.000000	7.718016	11.475684	16.551664
203	0	1	0.000000	6.770148	6.698664	4.692315
204	0	1	0.000000	8.735985	10.471649	7.264454
205	0	1	0.000000	21.286967	21.060330	6.006925
206	0	1	0.000000	4.846664	4.009527	14.057037
207	0	1	0.000000	3.586076	15.978620	18.208072
208	0	1	0.000000	0.001488	8.725834	8.763495
209	0	1	0.000000	1.276807	5.821536	11.433024
210	0	1	0.000000	0.119528	11.560923	9.706488
211	0	1	0.000000	3.551340	5.412597	11.494507
212	0	1	0.000000	3.708852	21.608269	1.083226
213	0	1	0.000000	19.534001	4.461804	18.898133
214	0	1	0.000000	3.399253	0.088553	9.288800
215	0	1	0.000000	11.457705	2.636181	21.379324
216	0	1	0.000000	6.437894	0.390633	6.675663
217	0	1	0.000000	16.161463	10.523098	7.431376
218	0	1	0.000000	0.513486	5.961859	19.057335
219	0	1	0.000000	4.622161	12.306918	4.712550
220	0	1	0.000000	0.781303	21.520154	21.504146
221	0	1	0.000000	17.894194	14.502304	2.426994
222	0	1	0.000000	4.308590	13.503053	6.867477
223	0	1	0.000000	9.257078	19.758205	21.606637
224	0	1	0.000000	17.748530	3.292668	15.936273
225	0	1	0.000000	16.306655	18.947564	7.504093
226	0	1	0.000000	6.595981	15.428630	8.989076
227	0	1	0.000000	12.972242	19.624208	13.252987
228	0	1	0.000000	14.644499	3.013754	20.022624
229	0	1	0.000000	4.450918	3.056931	5.709939
230	0	1	0.000000	14.784308	7.784607	19.405760
231	0	1	0.000000	6.764602	14.348158	19.383470
232	0	1	0.000000	4.331176	5.155347	21.855225
233	0	1	0.000000	8.285868	8.739786	5.227492
234	0	1	0.000000	14.163798	15.222812	9.791562
235	0	1	0.000000	7.947410	1.614891	11.068996
236	0	1	0.000000	14.253203	8.894095	21.590568
237	0	1	0.000000	18.636497	21.473332	8.191574
238	0	1	0.000000	10.396982	0.010148	21.408443
239	0	1	0.000000	18.543691	10.474904	9.712634
240	0	1	0.000000	5.322321	19.943239	19.419203
241	0	1	0.000000	18.061150	3.718333	10.593669
242	0	1	0.000000	5.137859	1.068949	20.919821
243	0	1	0.000000	16.382464	4.087480	9.079778
244	0	1	0.000000	21.585571	1.869997	17.689545
245	0	1	0.000000	4.355691	18.295829	14.045828
246	0	1	0.000000	5.873267	5.767204	2.755472
247	0	1	0.000000	4.526430	0.009598	4.154525
248	0	1	0.000000	21.418199	9.608723	13.698341
249	0	1	0.000000	12.106066	10.529260	12.158481
250	0	1	0.000000	20.465340	5.844237	9.184532
251	0	1	0.000000	1.491563	6.940010	13.337488
252	0	1	0.000000	5.579207	7.436000	18.927834
253	0	1	0.000000	9.840542	14.758530	2.200503
254	0	1	0.000000	3.505874	8.029114	8.246501
255	0	1	0.000000	12.667515	18.836342	19.267733
256	0	1	0.000000	6.898076	5.333879	20.609707
257	0	1	0.000000	0.596385	4.614441	16.975759
258	0	1	0.000000	14.548949	2.417145	4.206277
259	0	1	0.000000	2.080059	9.410767	14.451208
260	0	1	0.000000	16.499196	12.953386	7.768807
261	0	1	0.000000	17.159376	8.516618	10.703966
262	0	1	0.000000	1.672472	15.389713	5.847505
263	0	1	0.000000	18.437886	18.499570	5.493916
264	0	1	0.000000	5.644718	16.428734	18.852709
265	0	1	0.000000	8.073092	4.937447	1.801220
266	0	1	0.000000	8.836399	12.960245	17.864278
267	0	1	0.000000	6.627424	9.983589	5.985026
268	0	1	0.000000	16.136925	10.447029	19.312955
269	0	1	0.000000	12.860868	12.561238	15.891552
270	0	1	0.000000	5.313012	12.862628	21.870959
271	0	1	0.000000	12.050505	18.563340	9.561917
272	0	1	0.000000	14.526403	11.639825	0.004150
273	0	1	0.000000	20.120302	5.866938	5.399084
274	0	1	0.000000	11.339336	2.236026	12.920652
275	0	1	0.000000	7.851357	2.621339	2.932556
276	0	1	0.000000	16.694071	14.126831	18.398095
277	0	1	0.000000	18.756245	15.937828	12.990350
278	0	1	0.000000	19.144706	16.596829	0.188680
279	0	1	0.000000	13.707107	9.344880	14.842505
280	0	1	0.000000	13.848400	8.772564	12.722465
281	0	1	0.000000	17.050809	3.168930	20.459239
282	0	1	0.000000	10.398362	11.111716	17.595413
283	0	1	0.000000	4.059550	16.538158	7.755676
284	0	1	0.000000	20.162651	2.727998	5.048909
285	0	1	0.000000	11.078544	4.348360	14.959519
286	0	1	0.000000	20.495124	12.055005	21.673898
287	0	1	0.000000	5.819134	7.857183	8.191619
288	0	1	0.000000	15.855406	2.602268	6.385055
289	0	1	0.000000	13.308982	14.295332	17.189379
290	0	1	0.000000	16.681897	8.733825	13.334298
291	0	1	0.000000	3.977145	12.269779	18.958600
292	0	1	0.000000	14.834597	4.453594	0.000559
293	0	1	0.000000	1.311297	7.739995	1.682958
294	0	1	0.000000	5.198996	13.036454	0.006025
295	0	1	0.000000	3.750104	14.802804	4.822057
296	0	1	0.000000	9.354671	5.736110	15.192680
297	0	1	0.000000	17.366036	6.103142	10.697234
298	0	1	0.000000	16.878984	20.219411	12.386970
299	0	1	0.000000	3.697204	8.706642	18.739632
300	0	1	0.000000	14.427587	2.558651	15.927658
301	0	1	0.000000	8.597789	4.042791	0.009281
302	0	1	0.000000	2.762050	7.878937	16.635382
303	0	1	0.000000	17.170804	17.512119	19.007023
304	0	1	0.000000	9.873693	1.040518	3.869683
305	0	1	0.000000	1.442686	19.569463	16.719723
306	0	1	0.000000	14.042079	0.522363	12.451236
307	0	1	0.000000	2.477030	13.762126	8.331569
308	0	1	0.000000	2.945284	16.610797	21.542274
309	0	1	0.000000	9.322963	12.801733	3.537651
310	0	1	0.000000	2.000067	11.165780	2.987181
311	0	1	0.000000	0.984821	5.446737	9.168708
312	0	1	0.000000	11.008318	15.715063	9.301572
313	0	1	0.000000	12.533923	1.394007	0.019117
314	0	1	0.000000	17.623604	14.094991	4.969600
315	0	1	0.000000	7.743371	15.856842	2.317350
316	0	1	0.000000	6.092915	17.083940	12.675597
317	0	1	0.000000	20.089116	18.737983	0.395753
318	0	1	0.000000	18.782351	5.286816	2.101390
319	0	1	0.000000	5.487801	17.441708	9.216707
320	0	1	0.000000	4.736855	12.669937	15.645436
321	0	1	0.000000	0.347372	4.723042	5.692139
322	0	1	0.000000	10.044281	1.285128	9.205815
323	0	1	0.000000	9.287657	5.627405	10.836006
324	0	1	0.000000	10.542524	3.724537	9.422472
325	0	1	0.000000	16.445708	7.271804	0.006550
326	0	1	0.000000	13.728948	20.695967	3.046787
327	0	1	0.000000	0.289449	10.271898	1.931087
328	0	1	0.000000	19.885285	8.609332	7.322947
329	0	1	0.000000	11.397258	15.792491	11.614786
330	0	1	0.000000	13.877214	4.606738	18.101021
331	0	1	0.000000	17.540471	14.125319	12.711452
332	0	1	0.000000	11.232370	10.611490	3.405943
333	0	1	0.000000	1.207586	3.733397	13.378309
334	0	1	0.000000	12.376414	2.378681	15.142678
335	0	1	0.000000	12.370705	1.630668	8.441802
336	0	1	0.000000	1.447858	1.106723	14.432548
337	0	1	0.000000	14.290507	6.829893	7.511254
338	0	1	0.000000	1.523019	12.183204	5.146763
339	0	1	0.000000	3.592142	7.143880	20.285353
340	0	1	0.000000	0.378243	18.186134	6.228235
341	0	1	0.000000	7.444173	19.681773	5.796222
342	0	1	0.000000	1.654439	6.224936	21.387354
343	0	1	0.000000	17.138628	6.523164	19.940740
344	0	1	0.000000	6.501260	19.456797	1.737930
345	0	1	0.000000	13.043600	5.943775	20.718146
346	0	1	0.000000	11.379837	16.899701	18.856313
347	0	1	0.000000	15.562990	3.673111	21.863741
348	0	1	0.000000	17.487746	1.178699	5.718841
349	0	1	0.000000	5.738772	13.685087	2.599928
350	0	1	0.000000	12.388865	13.339874	2.522451
351	0	1	0.000000	5.157311	13.683153	11.037934
352	0	1	0.000000	6.218070	6.192111	16.335311
353	0	1	0.000000	12.159360	3.952570	7.571095
354	0	1	0.000000	9.683692	7.015295	3.910056
355	0	1	0.000000	11.809451	17.986291	12.214577
356	0	1	0.000000	18.007854	21.419932	5.648848
357	0	1	0.000000	16.658102	15.568767	20.507563
358	0	1	0.000000	9.868805	15.895542	0.006789
359	0	1	0.000000	9.514571	5.037812	19.558426
360	0	1	0.000000	21.319270	11.317468	3.861033
361	0	1	0.000000	18.024350	5.548916	7.587963
362	0	1	0.000000	13.963748	4.548134	4.006800
363	0	1	0.000000	1.341845	16.602881	18.362302
364	0	1	0.000000	15.973938	8.769789	1.623414
365	0	1	0.000000	19.380480	1.553819	21.730098
366	0	1	0.000000	8.879304	8.656348	21.582495
367	0	1	0.000000	19.150275	2.687178	2.099756
368	0	1	0.000000	1.954882	2.030741	1.768244
369	0	1	0.000000	18.708984	12.790492	7.215406
370	0	1	0.000000	21.870294	15.517257	0.652118
371	0	1	0.000000	0.385630	14.219324	4.494523
372	0	1	0.000000	15.857394	0.134557	1.338602
373	0	1	0.000000	17.255375	19.199438	0.003973
374	0	1	0.000000	1.670486	12.450362	13.723886
375	0	1	0.000000	8.542498	16.334877	9.600212
376	0	1	0.000000	4.852901	14.620314	20.569055
377	0	1	0.000000	12.424046	4.705346	10.183778
378	0	1	0.000000	16.053107	4.766804	6.748325
379	0	1	0.000000	12.312885	9.881421	20.951377
380	0	1	0.000000	17.826267	10.860481	11.923115
381	0	1	0.000000	21.403139	0.940291	7.464985
382	0	1	0.000000	19.965905	15.433278	4.363754
383	0	1	0.000000	16.052202	20.266246	4.459965
384	0	1	0.000000	6.705998	16.146950	21.866268
385	0	1	0.000000	10.461830	7.704404	14.081499
386	0	1	0.000000	2.207741	11.928852	15.790749
387	0	1	0.000000	13.098813	3.235671	12.056200
388	0	1	0.000000	2.653909	5.783769	0.467035
389	0	1	0.000000	9.722227	20.811827	9.777603
390	0	1	0.000000	2.869164	4.279165	9.007995
391	0	1	0.000000	7.243102	8.394189	0.940155
392	0	1	0.000000	3.870159	5.850716	7.529331
393	0	1	0.000000	16.971274	12.801358	1.235727
394	0	1	0.000000	19.693527	9.699145	11.818188
395	0	1	0.000000	14.534800	17.975369	8.388137
396	0	1	0.000000	7.094718	6.036736	10.632793
397	0	1	0.000000	18.955962	4.873941	20.934339
398	0	1	0.000000	5.747511	19.661740	9.541606
399	0	1	0.000000	6.129649	6.024821	6.690300
400	0	1	0.000000	1.193619	11.452064	7.790492
401	0	1	0.000000	16.146660	16.539831	9.188522
402	0	1	0.000000	4.274294	18.969152	1.272475
403	0	1	0.000000	8.902304	3.180059	18.245147
404	0	1	0.000000	20.202629	19.407113	4.466328
405	0	1	0.000000	8.091196	11.734536	1.071233
406	0	1	0.000000	18.997727	12.880238	11.562785
407	0	1	0.000000	8.842381	8.820287	16.571075
408	0	1	0.000000	19.352212	0.662833	9.688882
409	0	1	0.000000	2.083516	15.602072	9.718078
410	0	1	0.000000	9.115096	16.674938	16.012753
411	0	1	0.000000	5.457363	10.697874	0.029502
412	0	1	0.000000	16.230340	16.122365	16.549505
413	0	1	0.000000	21.118447	20.332579	14.660804
414	0	1	0.000000	19.633621	17.502810	3.129846
415	0	1	0.000000	3.598911	6.384977	13.665355
416	0	1	0.000000	15.070151	9.606985	17.207646
417	0	1	0.000000	20.643270	20.999242	19.293432
418	0	1	0.000000	12.992305	16.280627	8.078309
419	0	1	0.000000	15.246854	20.841901	7.914996
420	0	1	0.000000	16.090081	18.318389	16.706270
421	0	1	0.000000	13.229176	14.376169	21.514995
422	0	1	0.000000	19.557463	12.540376	1.495028
423	0	1	0.000000	13.010474	1.073969	18.844215
424	0	1	0.000000	17.262682	12.084392	13.940894
425	0	1	0.000000	2.754612	17.066880	13.072221
426	0	1	0.000000	3.677157	10.326432	16.609425
427	0	1	0.000000	19.117313	21.545972	16.165559
428	0	1	0.000000	4.737789	10.018438	20.783051
429	0	1	0.000000	14.693822	5.400052	9.879858
430	0	1	0.000000	6.289569	6.907738	13.291070
431	0	1	0.000000	2.327891	10.974351	12.088088
432	0	1	0.000000	3.434497	9.737979	0.000326
433	0	1	0.000000	10.559502	13.172840	16.174008
434	0	1	0.000000	2.459246	4.482734	6.273732
435	0	1	0.000000	10.034299	0.987523	16.851696
436	0	1	0.000000	20.890229	8.120336	19.400910
437	0	1	0.000000	3.638168	2.278343	9.760916
438	0	1	0.000000	5.870047	3.544318	3.371406
439	0	1	0.000000	11.739457	8.229349	6.356526
440	0	1	0.000000	21.758058	15.069300	19.871689
441	0	1	0.000000	12.862638	12.082491	7.880214
442	0	1	0.000000	10.168969	10.789657	1.322602
443	0	1	0.000000	3.477659	0.932647	7.258661
444	0	1	0.000000	7.790968	7.352268	19.549659
445	0	1	0.000000	11.420719	9.054794	18.510275
446	0	1	0.000000	7.655458	11.178135	9.078733
447	0	1	0.000000	7.862083	11.567121	14.267806
448	0	1	0.000000	0.305631	12.552187	20.664978
449	0	1	0.000000	7.332511	13.609421	10.063431
450	0	1	0.000000	17.235160	12.280538	3.690802
451	0	1	0.000000	19.542579	11.050114	16.988084
452	0	1	0.000000	9.750972	14.016768	7.356664
453	0	1	0.000000	12.802378	15.535570	1.855250
454	0	1	0.000000	1.905831	19.375537	11.849139
455	0	1	0.000000	3.046950	4.330789	19.666281
456	0	1	0.000000	4.083734	18.976470	7.262755
457	0	1	0.000000	8.548441	17.926445	3.042674
458	0	1	0.000000	15.039189	12.802979	9.799915
459	0	1	0.000000	16.870124	1.949088	8.678140
460	0	1	0.000000	21.212650	17.552909	8.333697
461	0	1	0.000000	18.051251	17.811028	14.187853
462	0	1	0.000000	19.410612	15.008006	18.947910
463	0	1	0.000000	6.322816	21.869329	15.233398
464	0	1	0.000000	4.563227	18.438632	21.184397
465	0	1	0.000000	20.836697	14.432684	16.926470
466	0	1	0.000000	2.912563	3.132594	3.500542
467	0	1	0.000000	11.110133	3.493493	5.126506
468	0	1	0.000000	15.526056	8.385559	5.684707
469	0	1	0.000000	8.177948	16.936804	17.991334
470	0	1	0.000000	14.953435	16.136933	2.983931
471	0	1	0.000000	18.488916	19.413425	11.051456
472	0	1	0.000000	8.199859	18.953012	16.774011
473	0	1	0.000000	18.028072	0.783619	1.636186
474	0	1	0.000000	5.660574	10.872098	17.390806
475	0	1	0.000000	8.514100	4.707719	7.750796
476	0	1	0.000000	4.274688	8.769679	13.399353
477	0	1	0.000000	14.677968	13.256382	3.144271
478	0	1	0.000000	17.873601	7.351901	15.090340
479	0	1	0.000000	8.261530	15.940882	4.484964
480	0	1	0.000000	17.232469	11.048397	-0.070176
481	0	1	0.000000	12.516722	19.022092	15.300353
482	0	1	0.000000	2.613488	21.067292	8.774156
483	0	1	0.000000	21.250697	7.341583	12.851457
484	0	1	0.000000	3.087427	14.666873	12.491211
485	0	1	0.000000	0.412191	14.824649	20.935917
486	0	1	0.000000	10.664964	14.229322	5.264718
487	0	1	0.000000	14.079414	2.603476	1.032200
488	0	1	0.000000	9.569888	0.000268	18.989448
489	0	1	0.000000	15.055257	12.720934	13.984413
490	0	1	0.000000	7.897378	8.974598	14.587065
491	0	1	0.000000	5.800998	10.655592	12.355284
492	0	1	0.000000	10.924048	0.655043	6.079788
493	0	1	0.000000	7.295350	17.636605	10.866875
494	0	1	0.000000	5.396111	0.863818	16.443021
495	0	1	0.000000	16.532046	1.550397	11.522378
496	0	1	0.000000	6.878395	12.263553	18.599046
497	0	1	0.000000	18.335357	10.514527	1.758922
498	0	1	0.000000	11.695164	18.872339	6.944982
499	0	1	0.000000	11.237194	3.177006	17.089128
500	0	1	0.000000	8.318427	21.657948	0.483171
501	0	1	0.000000	12.959861	15.191450	13.061827
502	0	1	0.000000	10.326713	3.384662	1.044725
503	0	1	0.000000	7.699216	6.699916	8.203511
504	0	1	0.000000	20.895563	18.018211	12.330477
505	0	1	0.000000	13.501439	9.673112	8.303487
506	0	1	0.000000	17.375968	8.943715	16.537705
507	0	1	0.000000	2.560256	21.475176	11.920997
508	0	1	0.000000	21.459866	5.165320	17.405987
509	0	1	0.000000	17.217969	12.837486	10.110764
510	0	1	0.000000	9.505359	18.669520	8.287979
511	0	1	0.000000	9.461079	14.885897	18.969041
512	0	1	0.000000	4.202106	6.847922	1.792737
