LAMMPS data file via write_data, version 4 Jan 2019, timestep = 3000000

512 atoms
1 atom types

7.7996754096098186e-02 2.4757003245901707e+01 xlo xhi
7.7996754096098186e-02 2.4757003245901707e+01 ylo yhi
7.7996754096098186e-02 2.4757003245901707e+01 zlo zhi

Masses

1 18.0153

Atoms # atomic

128 1 2.1281819621904916e+01 5.5787949456846162e+00 3.0149946865170105e+00 24 6 -20
482 1 6.1694035770288389e+00 6.9410532108387812e-01 1.9814777260095648e+00 2 79 36
170 1 5.3677614830546494e+00 5.3956676617524000e+00 1.9719014117229623e+00 12 37 -22
33 1 8.7425246576141529e+00 9.1290045002163627e+00 6.7348759383003296e+00 -100 -34 -14
434 1 1.6832624255839768e+01 8.8622818166844386e+00 6.6519379420647464e+00 48 -36 -73
357 1 5.2648754155114155e+00 7.9132732661229257e+00 3.5673138249153431e+00 9 -9 -15
267 1 1.0698488275010575e+01 2.6124371550891703e+00 6.0444681218865970e+00 -89 73 -55
263 1 6.6648421525322776e+00 1.1191327600541193e+01 6.4683515602957975e-01 34 136 10
79 1 1.8933701922741843e+01 7.5026703870726241e-01 5.9765728659252551e+00 4 -96 101
327 1 1.6690128212413740e+01 5.3216508740090420e+00 3.6008304067362329e+00 88 -3 4
160 1 1.6599389789160469e+01 2.4124092329138689e+00 6.4913485653327392e+00 -13 44 44
444 1 8.4253665829618622e+00 7.5002371089855986e+00 1.1926711040312596e+00 2 -29 12
360 1 2.7720586602277115e+00 6.9242615604004945e+00 5.0191838041386934e+00 -98 -46 71
127 1 7.7435755408831781e+00 9.4906674913165450e+00 2.5787299860295345e+00 55 69 83
490 1 2.0314066534847090e+01 1.4894003237127915e+00 3.5551310211412628e+00 16 -96 -2
172 1 9.8134761730057019e+00 1.6203129494175463e+00 3.6752640389105022e+00 -18 -104 40
294 1 1.1120927019958893e+01 8.0583317473504579e+00 6.2258503138834040e+00 35 37 -74
358 1 2.0892096776502207e+01 1.0389375820309725e+01 1.8545881683955381e+00 -32 88 35
219 1 2.6947728735778691e+00 3.9591792066701710e+00 5.6449579434051520e+00 -21 -12 -103
346 1 4.3168836017274348e+00 1.7115713335634177e+00 7.1904689234432606e+00 42 32 -110
422 1 1.4961015110002587e+00 1.1711826462090862e+00 5.9192839590176938e+00 -2 67 69
448 1 1.2380350607640654e+01 1.1492541919634096e+00 1.9437494171820640e+00 5 -37 -17
51 1 8.5793538122890016e+00 5.4515925564087411e+00 2.6900549430600318e+00 45 -15 -46
435 1 1.8906809065463587e+01 1.2226797631085832e+01 1.3808414979433659e+00 -45 -9 -21
220 1 1.3538390356740052e+01 3.4357663999237267e+00 3.2353059190477560e+00 62 3 3
505 1 1.4171128466680367e+01 5.5430569446183497e+00 1.6815476957559004e+00 -4 25 -48
145 1 2.3613209302498667e+01 2.8295357093457707e-01 2.8577143492661405e+00 24 -4 -52
469 1 1.2702311388801911e+01 1.5757727556145287e+00 7.5847408366110773e+00 38 4 22
260 1 1.8536795236087311e+01 4.9384854021161910e+00 2.0109076057022954e+00 -28 3 61
268 1 5.4798564401618606e+00 3.8848942270798190e+00 4.5475015894528186e+00 -127 2 -4
173 1 1.4746329800043425e+01 9.4404958923522937e+00 2.2406896616735530e+00 41 48 0
315 1 6.8112106418476142e+00 7.6058283664638608e+00 5.9254418208744832e+00 -72 95 92
382 1 1.2638149466920986e+01 7.6335103968741960e+00 2.3816941517933405e+00 50 -4 52
85 1 1.3244574167200055e+01 9.5002520720183590e+00 6.7502419785705525e+00 15 44 -106
404 1 2.2200035566426508e+00 9.6864930256842960e+00 1.5360824473664529e+00 -23 137 48
242 1 2.3936057550470117e+01 2.8924589956015954e+00 6.0389918495424926e+00 14 4 -52
125 1 1.6858741484979141e+01 4.9964042322758022e+00 6.3494434156545783e+00 -44 -52 -14
446 1 1.8112762191643732e+00 5.3686059205293217e+00 2.7816578130989904e+00 24 35 -19
110 1 1.6166678591098883e+01 2.0400748944309921e+00 3.4726879014757221e+00 34 -26 -37
266 1 7.6464486634213387e+00 5.2341196506303822e+00 5.3529810763747658e+00 29 -59 15
155 1 9.3144586809384400e-01 9.8049236472220453e+00 4.9079065979163756e+00 -43 26 37
71 1 8.9528435296298241e+00 3.7928289192056410e+00 7.5900952878204819e+00 68 -65 -62
12 1 9.1207418554546693e-01 7.4333652470834863e+00 8.3073899400595486e-01 61 -40 62
233 1 1.8201488339500841e+01 1.0800053856073577e+01 7.9307420269423154e+00 -7 -32 -24
88 1 2.0536025748660350e+01 7.4060511965769340e+00 4.7310623938061989e+00 -17 20 59
393 1 2.2524368201635319e+01 3.2078413145243281e+00 3.6330810237829603e+00 97 38 -80
141 1 7.9975474213886066e+00 1.6404755958260036e+00 1.6144268204289669e-01 100 79 -4
488 1 6.9586120453255829e+00 1.8178426463529882e+00 4.4099440381854391e+00 -17 -18 24
361 1 1.8563534940403606e+01 2.3997547916851438e+00 1.8910213565667684e+00 -57 101 -12
166 1 1.6636030957565314e+01 8.1964865639371620e+00 3.8169977927599561e+00 34 -18 -28
391 1 2.4537509969581819e+01 5.6686840736438207e+00 5.1842283113978178e+00 -89 -30 -9
379 1 1.2226683782208675e-01 7.5249298733863412e+00 7.6058273684625846e+00 139 -9 64
8 1 9.7082565261055613e+00 3.4658371653025832e+00 1.3403024752484876e+00 -20 23 -27
262 1 2.4550453096916133e+01 3.2643903887559329e+00 1.6744944574791183e+00 8 51 -36
251 1 2.3216452838105369e+01 8.1061987883838320e+00 4.1101290161874520e+00 -40 22 -40
53 1 2.2350130909097206e+01 9.7523776774250024e+00 6.6822212627681443e+00 49 99 146
21 1 2.2973963427128897e+01 6.4500711386538159e+00 9.4306033662187017e-01 10 4 -112
238 1 3.0655806514332253e+00 1.9488642434886012e+00 2.4720677528563635e+00 48 19 -22
254 1 3.9310800571433133e+00 1.1680608338427772e+01 6.1628514673159209e+00 47 96 46
402 1 4.4480018367419047e+00 7.5075458180947443e+00 7.2606080533846979e+00 38 51 -31
28 1 1.0957401685129319e+01 1.1418981740154903e+01 1.7209282345083010e+00 18 35 28
58 1 3.6669848830915921e+00 9.9734020315716823e+00 3.7607322358553001e+00 -6 -14 -1
124 1 1.4025233989563320e+01 5.7655773224880518e+00 6.6301693772106551e+00 -50 156 -28
265 1 1.8917656739082897e+01 7.2268570796410376e+00 6.8153125659252245e+00 -72 -48 67
119 1 1.0588233246014576e+01 6.8791233553139506e+00 3.9245013408275256e+00 40 73 100
133 1 1.3256125050173720e-01 1.0951488068759183e+01 7.6334590664854955e+00 -36 75 -48
511 1 3.8376212404223087e+00 4.0822839818191206e+00 1.6858556621898280e-01 47 8 98
246 1 1.2225905516998328e+01 4.6394603863029280e+00 5.0729003141676232e+00 81 58 100
431 1 1.8977112085019709e+01 1.1555940332575405e+01 5.2564460771321349e+00 -64 -38 -35
63 1 1.3970843091813698e+01 1.1168668852998557e+01 4.5754091125534186e+00 8 -2 -92
371 1 1.3646351167415254e+01 1.1939380973633483e+01 1.4060325252528567e+00 -70 32 -62
421 1 8.8892805497512803e+00 1.0703337104594212e+01 4.6355123190121663e+00 19 6 76
218 1 4.6029993076931879e+00 1.0199451082644165e+01 8.2210313928170464e+00 -49 -14 -31
235 1 2.1994435049145700e+01 1.0701704030499983e+00 6.6720319955896112e+00 27 -61 146
154 1 1.9147499194220437e+01 9.1395386971616279e+00 3.5019028936210352e+00 93 -31 8
190 1 1.0701012721683608e+01 8.5265824478936665e+00 3.3042901515332629e-01 93 93 27
341 1 2.3581208759798674e+01 1.0974776738318159e+01 2.8875225004021825e+00 43 -40 61
316 1 1.1269336426625871e+00 1.1862942785157513e+01 1.2641232519045242e+00 43 117 62
366 1 6.8902063566239935e+00 1.7322557978426094e+00 8.0698815237063730e+00 157 -1 -48
470 1 6.9147540085106503e+00 1.2057881829886018e+01 5.4066957083432552e+00 31 -30 -136
283 1 1.1100362763848537e+01 1.2024165639060728e+01 4.7990565019028431e+00 85 -38 69
199 1 1.4658336179288671e+01 1.4638084400463047e-01 5.7712114535922154e+00 18 73 -29
443 1 4.6856775532629804e+00 6.6047983661089313e+00 9.9345909072106124e+00 -105 16 -14
114 1 1.1321572049991977e+01 8.2903759838948989e+00 1.5282602488708523e+01 -17 19 -16
460 1 1.9885184813108950e+01 1.1279285678084326e+01 1.4493797563530588e+01 -115 124 40
441 1 5.7067374058055194e+00 3.2999331300978261e+00 1.3060081188124713e+01 -3 -65 -17
388 1 6.8947047382563849e+00 2.2497587847573849e-01 1.4726923277243257e+01 64 -6 38
92 1 6.8898654195242779e+00 1.1330264715656590e+01 1.1619504567113221e+01 -48 55 -100
395 1 1.6317871250161943e+01 4.8857727982107040e+00 1.2262836615800689e+01 -26 51 -53
149 1 1.5366386607333023e+01 1.1865344502773462e+01 8.6137593422814405e+00 -55 54 -6
385 1 2.2045062279611656e+01 8.0388874092751266e+00 1.3822368058511834e+01 54 28 52
187 1 4.6345564420558860e+00 1.0691523799698427e+01 1.4711901150310153e+01 -1 24 -7
281 1 8.4955728146827081e+00 4.9433099243481040e+00 1.0561471060078764e+01 39 -31 103
179 1 2.0414312399729582e+01 1.1809181675719648e+01 1.2062152700624710e+01 -76 -76 -40
29 1 2.0213562278884805e+00 4.5276500657106453e+00 8.6552811726210361e+00 54 -38 -29
211 1 1.9364434684827128e+01 4.7517173407813464e+00 1.3138457970807977e+01 -39 10 -19
186 1 1.1088600450861271e+01 1.1509107258845741e+01 1.2499125207486726e+01 -21 171 43
321 1 1.3466810072861662e+01 7.9391429079794928e+00 1.0798353648096915e+01 43 26 -74
107 1 8.1108354533549250e+00 5.6146096952687348e+00 1.5827971725997635e+01 -36 59 -138
148 1 8.0163930027373311e+00 7.1459990210526172e+00 1.2067996085623722e+01 -46 49 68
412 1 2.4363973987419278e+01 1.4044080089228144e+00 1.3965619157053670e+01 -27 22 -74
378 1 7.0636820284314377e+00 1.0691307958533939e+01 8.7813495398676729e+00 21 -16 -77
19 1 1.9139097350023377e+01 5.1637119871736106e+00 9.0617591691054571e+00 10 49 82
45 1 2.4567931609263976e+01 1.1452816640940727e+01 1.2494088574238441e+01 -10 90 -84
430 1 1.5934460684119589e+01 9.3817270783330073e+00 1.1283729649236582e+01 61 46 12
169 1 1.4444118947218467e+01 1.1759252767758543e+01 1.4160937681762896e+01 -13 32 0
426 1 3.4079072643978510e+00 1.1486287328567336e+01 1.0362150363892423e+01 83 -11 67
457 1 1.8455958175883818e+01 8.8628516142299780e+00 1.5059057948907492e+01 -22 -40 69
197 1 2.1648911148063206e+01 4.7370706308716777e+00 1.1938915923662403e+01 2 41 46
216 1 1.8491205109812394e+00 7.0373306503739776e+00 9.6991009087008742e+00 -27 2 164
153 1 2.1818247042793349e+01 2.5606603960650363e+00 1.4471948584116065e+01 1 -21 80
48 1 2.3252887603718239e+01 5.4645556713392951e+00 1.4151040800108117e+01 10 -7 32
462 1 1.2096722235116255e+00 9.9892372453754916e+00 1.0738228945421000e+01 -73 10 39
356 1 1.1991163435126733e+01 4.2089933784335640e+00 1.2790899002401133e+01 -68 3 -3
207 1 2.4100699224657038e+01 2.3331234530222984e+00 1.0604946569605834e+01 37 -32 3
188 1 1.0125258347256256e+01 1.3086350632017092e+00 1.5756955804452440e+01 4 3 65
185 1 1.1622684970500385e+01 9.8046618878637748e+00 1.0437921132513795e+01 2 8 -12
420 1 3.1620215719515801e+00 2.3760676716404832e+00 1.0306495676480456e+01 31 -29 122
41 1 8.0428185401274668e+00 3.1278666389959984e+00 1.4616883429519708e+01 70 -3 34
429 1 1.4370874984774030e+01 5.6669510891811861e+00 1.4072807533674190e+01 -26 -30 39
249 1 9.4920765643368377e+00 8.9041642146341360e+00 1.3646326207134981e+01 -71 -50 -31
286 1 1.8541474624632819e+01 1.7990977532638581e+00 1.3179805885953320e+01 43 -24 13
310 1 3.4489478796728044e+00 1.6661827332678329e+00 1.3578753932600266e+01 -9 -18 18
90 1 5.7527541402786699e+00 8.4422435124656747e+00 1.1177262237031817e+01 -50 -44 -68
192 1 2.2293412005344905e+01 1.0185874183823570e+01 1.0739937642653851e+01 -80 57 -48
162 1 1.5337344271421371e+00 2.7185129506445815e-01 8.9387389298053090e+00 -35 5 0
215 1 3.8472690719464944e+00 4.6348571455805985e+00 1.5877961754558575e+01 8 -138 -44
403 1 4.7876919357800380e+00 1.6904651903538979e+00 1.6110535576820954e+01 -67 60 12
146 1 7.2380984290107477e+00 1.0526630959704464e+01 1.4778302235144468e+01 -9 -7 4
364 1 1.0688296960762345e+01 5.9183773067087913e+00 1.6391814004087859e+01 112 12 -20
410 1 1.9383396772420479e+01 6.0615086496629287e+00 1.5501706235792689e+01 21 142 5
195 1 4.6427594749949206e+00 5.7842147351132098e+00 1.3137713172031933e+01 -16 -9 80
331 1 8.5885790482839230e-01 8.1556465110371992e+00 1.4158272491505643e+01 34 28 -14
383 1 1.1893264230530750e+01 3.4270387527159270e+00 1.5393989364139660e+01 -43 94 -22
36 1 2.3076029295451235e+01 1.0542530502935403e+01 1.4575368393997961e+01 113 68 119
203 1 1.5331582655901647e+01 2.9070506355484942e+00 1.0141337766032386e+01 106 -115 80
464 1 1.0446733568179893e+01 6.1686175717374185e+00 8.3443455397025499e+00 14 26 -22
214 1 2.1277751825145881e+01 2.0054103063501998e+00 1.1610927329127323e+01 17 102 4
76 1 5.8982950055004144e+00 3.6903530748274438e+00 1.0149960966793140e+01 24 21 11
353 1 9.5666712957029603e+00 3.3205175280544457e+00 1.2202739899042164e+01 -175 67 99
196 1 1.3564344676884886e+01 1.9600679591150520e+00 1.2258272641144755e+01 9 23 12
476 1 3.3320265701506342e+00 8.9686548742208601e+00 1.2652661830564490e+01 -28 -7 -50
44 1 1.9138324995866810e+01 7.6328737112660354e+00 1.2353127605409849e+01 -31 -33 100
70 1 2.3627616562160835e+01 7.7055361219107601e+00 1.1568550320561114e+01 83 -4 11
46 1 1.2547202546674681e+01 5.3074986636736501e+00 1.0137359971571806e+01 41 -15 64
419 1 1.7271775050371925e+01 6.5868546142576045e+00 1.0543992574203283e+01 41 13 17
136 1 1.8196623584426563e+00 5.9092539254168983e+00 1.2433788500900524e+01 40 -78 107
230 1 1.9749409011795006e+01 2.2247965326447257e+00 8.8176964750399343e+00 9 -32 -134
305 1 1.3514733624362794e+01 7.7659188014929352e+00 1.3740462700844933e+01 13 91 35
17 1 1.8749954759879909e+01 9.8370083147768881e+00 1.0599280966044166e+01 37 20 25
504 1 1.0184755288290368e+00 5.7151188867582059e+00 1.5957444271076170e+01 -38 -17 43
368 1 2.2202045198963138e+01 6.3433681201065859e+00 9.5371816005949270e+00 47 -31 44
351 1 1.3740437155389536e+01 3.6331278679070396e+00 8.4657010621110871e+00 23 -38 -64
369 1 1.4799016782540191e+00 3.0988314343152910e+00 1.2352278351957132e+01 0 58 1
387 1 9.4917075104371857e+00 7.4184209239916277e-01 1.1149710911383854e+01 68 -17 128
39 1 9.2526112562880432e+00 8.6284697300992050e+00 9.9018174167213253e+00 -2 44 54
180 1 1.9731279678630834e+01 6.2337208380579656e-01 1.5604168261419129e+01 -8 287 -24
121 1 1.5704707753199576e+01 2.3189909981601393e+00 1.3986813637473443e+01 -6 2 4
84 1 6.1744730724194890e+00 7.3974627037534582e+00 1.4708423857735408e+01 33 59 26
213 1 1.5774300629426502e+01 9.4482356018252567e+00 1.4353487558776335e+01 -49 -3 16
30 1 1.6342188682339593e+01 7.3510065708033079e-01 8.6929330409633412e+00 -80 0 -13
134 1 1.2764355403265832e+01 1.1239379537284076e+01 8.5468013927457651e+00 -77 -15 22
209 1 2.0799541254948529e+01 8.5402904175058616e+00 8.6364637208329871e+00 1 10 -52
440 1 1.7282977490731604e+01 1.2207055777443182e+01 1.4385749285708068e+01 -32 -38 120
362 1 4.5279881630381735e-01 3.0037956339645668e+00 1.5930973269680772e+01 -48 -17 -59
338 1 2.3941642156076558e+01 4.2026201121687095e+00 8.5298821293246565e+00 -2 -3 38
132 1 2.3266956693754693e+01 1.0299069229409445e-01 9.1294079549136775e+00 -46 1 -67
432 1 1.5804979247265905e+01 1.2144853449319786e+01 1.1317025390025089e+01 35 -60 6
293 1 3.9419767144672130e-01 9.5959905937151664e+00 1.6446322951986758e+01 19 129 58
354 1 1.4802490881164989e+01 7.6750322528512065e+00 8.3365996987338473e+00 3 49 14
22 1 1.5261106325646267e+01 4.7726011369160917e+00 1.6514596074360234e+01 5 -72 75
143 1 9.4362366530602806e+00 5.8821094695462346e+00 2.0837546741293252e+01 41 3 3
241 1 1.1121222953082052e+01 6.5267540354015372e+00 1.8910412155497653e+01 0 -111 -29
65 1 1.7145973056407612e+01 1.2072504274256200e+01 2.4100444311147136e+01 -33 72 -10
177 1 1.3380123071813495e+01 3.2748223192357111e+00 1.9903125555908844e+01 -18 -37 43
113 1 1.7742380638739380e+01 4.2629434200206235e+00 1.6772648164391821e+01 -44 31 84
77 1 4.2457617203210312e+00 1.2107728984781643e+01 1.7206873961005449e+01 62 -24 10
198 1 5.6991206850322120e+00 5.7725661328922131e+00 2.1391583387474647e+01 -34 40 14
23 1 1.1657452117576989e+01 1.0247421692277479e+01 1.6931599552148235e+01 54 33 8
226 1 2.1935130154612107e+01 8.8586655202970128e+00 2.4633076623491046e+01 -1 11 5
99 1 2.3565044417607570e+00 1.3554287182254028e+00 1.7173934061678725e+01 1 -13 50
367 1 3.7501660125555474e+00 1.7436606362389311e+00 2.1773833200897091e+01 0 1 61
498 1 2.3151872641162161e+01 3.5593254781433328e+00 1.7658800266142965e+01 38 17 -1
282 1 2.9897131019618040e+00 7.0730358333477383e+00 2.1724261920020506e+01 31 24 68
120 1 2.2013550926424621e+01 6.5505334943847568e+00 2.1353475377607509e+01 0 -61 66
425 1 1.3965069498604700e+01 6.7320735796176994e+00 2.2587766790205428e+01 69 32 -14
217 1 2.0646740157555641e+01 8.5935092597961802e+00 2.2314924037327316e+01 105 -44 84
176 1 1.8276937607205689e+01 4.9243224125413771e+00 1.9341257554073799e+01 -94 -91 -33
191 1 1.7850119783969152e+01 7.2795538289425055e-01 1.9766589896592262e+01 43 -17 -16
106 1 7.7987071455406665e-01 9.9397056780796973e+00 2.1051600453726955e+01 9 -19 5
298 1 2.1203151478594272e+01 1.0344436854664764e+01 1.8272820194587894e+01 7 45 2
308 1 1.0994394807766973e+01 1.9363343116532705e+00 2.0627417209989076e+01 51 104 62
150 1 1.7569547293395225e+01 7.5800477541478033e+00 1.9960190384642353e+01 75 -31 74
49 1 1.5302144017872514e+01 6.7609545094318992e+00 1.8477192349549764e+01 -12 24 -25
459 1 2.8972836927617751e-01 4.1261693825395565e+00 1.9621604889025168e+01 56 -18 48
208 1 1.7960966424963104e+01 1.1435976147920620e+01 2.1291523096645850e+01 26 86 -9
138 1 2.6164128918327401e+00 8.0051029823871271e+00 1.7635868410261519e+01 186 43 22
477 1 1.1010284426825699e+01 1.1032726063666782e+01 2.0280556530480027e+01 35 -5 36
60 1 2.2064162940400447e+01 5.1673135058594628e+00 2.3286235816002087e+01 -66 -19 64
485 1 7.8827985142145733e+00 9.3664014466954526e-01 2.2030739487684254e+01 -15 4 77
152 1 9.1514554133971089e+00 1.3836493043030427e+00 1.8564335364408340e+01 -55 -153 -8
299 1 2.3293662035361280e+01 8.0442568738546338e+00 1.7821261395376368e+01 53 16 58
25 1 1.8703177401668853e+01 9.3454198910258306e+00 1.7981426780165442e+01 61 -73 -52
222 1 1.3386406129489636e+01 5.9938492814064315e+00 2.0020187337617624e+01 19 54 50
509 1 1.4760858839768092e+01 3.0514305561376962e+00 2.2080696844563576e+01 113 49 -80
104 1 2.4316088485755881e+01 1.9215330334418423e+00 2.3837590566539685e+01 77 21 -20
73 1 2.0863684813031561e+01 1.0963104724208076e+01 2.0876162800633406e+01 -58 11 23
309 1 1.5105849821491280e+00 1.1639664868084994e+01 1.7653743218652274e+01 60 57 -48
239 1 1.8271740210122374e+01 7.9230416142213098e+00 2.2482426331702889e+01 43 -23 10
232 1 2.0835980323170702e+01 4.5154730388324067e+00 1.9428317353980066e+01 87 42 24
24 1 1.5414732720324340e+01 1.0385823742609976e+01 2.0588797936407470e+01 33 -52 59
453 1 6.1284741654241230e+00 4.8006346838324898e+00 1.7397285550442071e+01 61 0 6
375 1 1.6718345871567830e+00 1.8470723552548245e+00 1.9905110990749201e+01 12 46 -116
147 1 6.9422273875611813e+00 7.1377381200289705e+00 1.9400983592602159e+01 -29 35 92
381 1 1.7646551708306252e+01 5.4680476137856937e+00 2.4017033408055308e+01 28 -107 40
174 1 1.2492094040963885e+01 1.0432098912057967e+01 2.3371882993578723e+01 18 96 -20
4 1 1.5567743910734075e+01 3.3605977557609845e-01 1.6616436779898361e+01 24 -78 9
377 1 6.6662549631979751e+00 4.4679978801188778e+00 2.3602373103252877e+01 15 13 -113
495 1 4.7788890413383411e+00 2.1747459537271957e-01 1.8784591291248486e+01 -24 9 -62
183 1 8.5685188256160369e+00 8.4516961011276646e+00 2.2186097717879345e+01 31 85 19
94 1 6.0224660369721859e+00 2.9691951594948023e+00 2.1007667621602995e+01 -54 37 43
492 1 7.2129201695496130e+00 1.0047028382187220e+01 1.7743346194022301e+01 5 -22 40
112 1 2.4564469128212135e+01 4.3748212151816031e+00 2.2445963870657494e+01 19 94 -40
178 1 2.0586002276404038e+01 1.9203899872111883e+00 2.0133723071439576e+01 76 36 -60
201 1 1.6306974688804448e+01 1.1150910412393618e+01 1.7524844769182739e+01 -99 -50 32
329 1 1.2199809661384867e+01 1.5740493695707973e+00 2.3655246475477494e+01 9 -128 -65
264 1 1.4873347084316878e+01 4.9684283743742297e+00 2.4019037544728025e+01 -107 32 38
475 1 9.3819522492478349e+00 3.5608621083439473e+00 2.2354126844349398e+01 17 -18 -13
182 1 2.4271825673931470e+01 7.6444174841513846e+00 2.0287560407698233e+01 117 51 47
359 1 9.6154269431650103e+00 1.1018205474884853e+01 2.2982104276708810e+01 -37 51 10
304 1 5.3262071210181530e+00 8.2519617342380283e+00 1.7201183668017766e+01 -26 -43 122
467 1 2.4088218947760577e+01 8.1936991700773298e-01 2.0888480269290550e+01 -57 97 51
452 1 1.4730479352824053e+01 9.2897311955065547e+00 2.3004615286669193e+01 3 -3 88
336 1 1.7966530440657931e+00 5.6509535745600568e+00 2.3759192467043263e+01 39 -11 -124
157 1 3.6271657389423062e+00 1.0067892727057810e+01 1.9652241864827680e+01 -10 -13 57
204 1 1.8615128659310773e+01 2.8523602676969779e+00 2.3732053789202773e+01 20 -18 -187
373 1 1.1309814351854248e+01 6.8184229920552202e+00 2.3122367279715302e+01 50 43 -52
277 1 1.3817938833732621e+01 2.4872945279108545e+00 1.7147317588234483e+01 36 -3 109
312 1 9.9311625367970109e+00 8.9597279744538039e+00 1.8649639595032273e+01 0 23 13
295 1 1.3602270618165905e+01 1.1956690800156238e+01 1.9396171269183455e+01 -46 -10 -14
61 1 2.7639610613341650e+00 9.5275983464958856e+00 2.3011312013395202e+01 87 -56 99
291 1 1.7769895596494469e+00 6.1858062771643594e+00 1.9403835199774786e+01 29 113 72
210 1 2.0912858219377274e+01 2.5723879396878644e+00 2.2906100244630863e+01 -14 -3 39
396 1 1.7121726291910601e+01 3.1171147176647294e+00 2.1301954473432453e+01 -13 3 19
234 1 5.4433309637107401e+00 9.3904045507485048e+00 2.3678777449409182e+01 61 -24 19
499 1 6.7470409634722222e+00 7.2538808711009253e+00 2.4170232936588814e+01 35 -28 -67
408 1 1.6666916187543642e+01 9.3205584862898885e+00 2.4704554995934931e+01 -138 30 59
301 1 1.4469552710124164e+01 9.0238740220726097e+00 1.7219201277750280e+01 118 33 27
300 1 1.8024978789952041e+01 1.7068633939343787e+00 1.7283725370558589e+01 -79 63 33
156 1 6.2150367826110431e+00 1.0155864331029337e+01 2.0869287225497558e+01 43 26 -23
427 1 6.6563873816204335e+00 2.4263655370385537e+00 1.8525240175505246e+01 129 -13 23
202 1 2.1940909606603633e+01 5.9639446485303420e+00 1.6678564096065447e+01 29 93 -14
450 1 2.1621828804158882e+00 1.1474856963391571e+00 2.4488681880100390e+01 122 -71 27
447 1 2.3541956440622716e+01 1.0806333979577058e+01 2.3490796450357180e+01 -2 -119 22
306 1 1.1591414179054508e+01 4.2794196850046733e+00 2.4484812614665252e+01 -4 66 -63
494 1 2.2835595331781786e+01 1.0679407550345674e+00 1.8636790593632107e+01 -13 57 -84
168 1 1.7217286590935078e+01 2.6538387506088545e-01 2.4604377055721617e+01 98 -57 -54
288 1 4.6171709953813850e-01 2.2509541740108929e+01 6.6328476912286582e+00 -65 -28 -84
473 1 1.4443512395611123e+01 1.7425471757071819e+01 2.8737228912387138e+00 -44 -31 72
317 1 1.6217670082389681e+01 2.4023387635696356e+01 2.4006053525020552e+00 113 -24 -21
111 1 1.2573376123739468e+01 2.2708414512985815e+01 5.6253798552236054e+00 0 39 90
389 1 2.0463784674236429e+01 1.4438572481378444e+01 2.7745359495507600e+00 2 67 -12
66 1 1.7507230480260031e+01 1.3106799706575107e+01 3.7403162451461567e+00 -20 25 -30
81 1 4.1627846741605943e+00 1.6605450432635386e+01 7.4593741779317684e+00 47 100 -12
35 1 2.2886474462259514e+01 1.8189453060762766e+01 1.8349673220844265e-01 -55 23 -50
52 1 1.8569454537095631e+01 1.7862013632865569e+01 7.4505334858106131e+00 106 -92 138
56 1 2.0629883379317302e+01 2.3773023553025304e+01 1.8021342240253946e+00 -2 77 29
458 1 1.4835649526601246e+01 1.4260458202697828e+01 6.9748875750014152e+00 -40 40 -1
34 1 1.5899426768348690e+01 2.2320196791967142e+01 6.6323122310105225e+00 -124 -15 127
18 1 2.3433957266432802e+01 2.3011819904318088e+01 1.2261811574597807e+00 49 52 47
248 1 2.1836847262129108e+01 1.7916571661796137e+01 5.3141961177817452e+00 -36 27 -5
129 1 1.0765363270282258e+01 1.9651228706212503e+01 5.1268526887657391e+00 -50 -37 -80
330 1 1.2293639894190260e+01 1.6196869741097331e+01 6.0809995279980482e+00 -11 21 37
466 1 1.4977801160232202e+01 1.3566247226686558e+01 4.5624382154217118e+00 106 -29 -20
480 1 2.1405295187066887e+01 1.2482296505795960e+01 5.9226425089022170e+00 10 -51 80
228 1 6.4404803582645209e-01 1.9846073058230100e+01 3.6855324941422594e+00 -36 22 17
365 1 9.3204029464348768e+00 1.9068489891821276e+01 8.0168710023733674e+00 -14 69 -34
163 1 2.4324501003663915e+01 1.5677025161737857e+01 2.4318078370606835e+00 -38 -61 4
465 1 8.7546455261949863e+00 1.9946861065211611e+01 4.7424741153068350e-01 28 36 42
415 1 1.0165250199340440e+01 2.2097104556611114e+01 1.8258015415588900e+00 -62 -48 26
167 1 5.2433741892877324e+00 1.2563650150542793e+01 2.9165195566350848e+00 22 -18 4
437 1 7.0746254033228189e+00 2.2949722665022222e+01 3.0301092671337004e+00 9 10 -114
31 1 2.0103059104691283e+00 1.7898963653742424e+01 2.0297263007718933e+00 -46 -19 128
337 1 1.8330210410343817e+01 2.2870861098476865e+01 3.9849914613921551e+00 25 14 -42
118 1 6.8861014736982522e+00 2.3887441659660439e+01 5.9917117007223721e+00 -28 131 -84
323 1 1.1567608835183824e+01 1.3469598811571050e+01 7.4258558367743355e+00 11 -109 22
224 1 2.2936253629255418e+01 1.3534818928542391e+01 3.8222743170076270e+00 57 -89 -1
75 1 2.1303530921157520e+01 2.1515013842292070e+01 5.8513445322369382e+00 16 38 9
280 1 1.0210111614236764e+01 1.7618335727365739e+01 5.9906767552020068e-01 21 -46 159
181 1 2.1305096960898986e+01 1.4211006634180247e+01 8.1059745830808332e+00 80 66 -50
290 1 8.3663304696531640e+00 2.1420676594099326e+01 5.8441539641495952e+00 -7 -87 -78
139 1 1.8657342111590783e+01 2.2809409102982023e+01 6.8578805639729179e+00 -17 -4 -16
348 1 2.3079180594942546e+01 1.5508523116660193e+01 6.5166447161066330e+00 -13 -16 17
328 1 5.0951777117973149e+00 1.7079941914201424e+01 4.7186119746494706e+00 73 85 -16
276 1 2.1777560886745583e+01 1.7103414579996112e+01 2.6692453837673469e+00 33 167 -29
131 1 2.3076516444422936e+01 2.0524051728660289e+01 2.0934472791814014e+00 20 -28 -9
413 1 2.8079649749258082e+00 2.2066973279531361e+01 5.4541825712204277e+00 -16 12 -23
82 1 9.0003420661828226e+00 1.3053095457380527e+01 2.4369569770096949e-01 -5 -9 10
115 1 1.3561787528873436e+01 2.3166382721470239e+01 1.8076150018842108e+00 82 -143 17
380 1 1.6954441562497756e+01 1.6789353379204403e+01 2.0104427775950175e+00 -6 86 67
64 1 2.4013930818138874e+01 2.0099753338983522e+01 6.3629838147397235e+00 -39 60 20
10 1 2.8493758444794808e+00 1.6155810878987264e+01 3.7930113564523227e+00 -79 51 -29
397 1 1.4632857706744858e+01 1.9886557807904079e+01 4.9351658510160448e+00 -47 53 -43
278 1 1.9334010153712036e+01 1.8758585154986925e+01 1.6945528204192701e+00 -91 -112 47
123 1 2.4552903679573004e+00 2.1716261736237520e+01 2.4800147977791136e+00 -73 -8 2
433 1 1.0849266216745427e+01 2.2718162294253442e+01 8.0144745274245288e+00 5 -57 -44
257 1 1.3301991587172582e+01 1.4815061178904600e+01 2.6256580531005831e+00 -26 13 40
193 1 5.9277730962836275e+00 1.9829941995450181e+01 5.5913479809861943e+00 -79 29 -17
27 1 7.2082581713046521e+00 1.5373297642516896e+01 4.9196323198563245e+00 20 -25 63
5 1 1.8930182951342784e+00 1.3117796623148383e+01 7.2498974957482529e+00 43 43 -1
103 1 7.3910628126166902e+00 1.8785654175719596e+01 2.5416622732380270e+00 -21 43 -53
96 1 1.0490462133999252e+01 1.4769854637717678e+01 3.1839711554638184e+00 233 46 65
405 1 4.8302833479440235e+00 1.9101118699481592e+01 8.0593365140154170e+00 -29 -8 52
508 1 1.7154121285322187e+01 2.0315894005548515e+01 3.9850923150526927e+00 6 22 -68
236 1 2.9740511185168779e+00 1.4011327264888225e+01 2.0351820007437054e+00 43 84 66
334 1 1.8565357605587216e+01 1.5875466104203634e+01 4.4539958052249276e+00 43 68 14
135 1 2.0637530170070217e+01 2.1008521110964267e+01 2.8134183206579233e+00 1 53 -63
9 1 1.0275828254911771e+01 2.3661072629876081e+01 4.2159493519710010e+00 -38 36 14
386 1 6.2773699268252354e+00 1.6692069243618963e+01 8.1834874272305247e-01 88 -43 6
184 1 1.2880430032013788e+01 1.8853725525414166e+01 1.0689603496040325e+00 -3 14 29
7 1 1.2740619673464886e+00 1.5516260644275034e+01 5.8327099644530866e+00 48 0 51
510 1 9.7363178639141736e+00 1.6268649854880874e+01 6.0222480357777162e+00 -64 144 23
436 1 9.5793246885332106e+00 1.7789208691397835e+01 3.4451996583185580e+00 47 65 24
6 1 1.9276836291615925e+01 1.8735994952388591e+01 5.0781523933166399e+00 81 22 -36
350 1 6.8628672011712615e+00 1.3278518038779206e+01 7.6770938147320811e+00 24 -1 44
130 1 7.5947767794462573e+00 1.4624696767441556e+01 2.0288916808933379e+00 -20 -36 11
285 1 1.6544560471677796e+00 2.4500287012735019e+01 3.4195580378080259e+00 -23 78 -5
151 1 1.3444074887679802e+01 1.8631268301316751e+01 7.0609159296374751e+00 -34 -36 -7
59 1 1.2517780718392141e+01 2.0745680228925899e+01 3.0095106951148316e+00 46 -98 62
11 1 1.7388707084248132e+01 1.5368430368231616e+01 7.0698561684772452e+00 15 72 -47
80 1 2.3020454742990633e+01 2.3702509244546707e+01 5.3129951813630925e+00 32 45 8
1 1 1.7133157123040643e+01 2.0889959172755944e+01 1.0702807580691323e+00 -57 -41 66
461 1 4.3161244314931286e+00 2.3496849364978459e+01 7.2347600086015014e+00 10 28 -17
250 1 5.3300073682839120e+00 2.0910631896456046e+01 3.2094388972903056e+00 -2 14 166
284 1 2.9180505575294018e+00 2.1256906158229206e+01 1.2351287493481049e-01 -85 -59 -16
2 1 1.1535786818938179e+01 2.0235905314954994e+01 8.7218866502951933e+00 -52 0 -17
352 1 1.1467770787633430e+01 1.2972720495785591e+01 1.6192448159012056e+01 51 -40 -71
292 1 2.1485167785567906e+01 2.3180751652908217e+01 1.0746482276175104e+01 -15 15 67
108 1 1.9222672362006774e+00 1.3207679987864880e+01 1.3219643438444791e+01 44 -36 28
38 1 1.5990817243748076e+01 1.8914545819796956e+01 1.3567858662514837e+01 -18 56 -20
165 1 1.1511724820852169e+01 1.7023451696998148e+01 1.1214928071710307e+01 97 -6 103
189 1 4.5535438487406177e+00 1.2653350055480654e+01 1.2884498945802720e+01 117 -52 -32
68 1 1.6027270708568203e+01 1.7069768221890257e+01 1.1112816252945173e+01 -1 -29 17
287 1 1.8605280726148827e+01 2.4291781139032263e+01 9.7788321070466893e+00 -16 -4 -8
274 1 1.0257747247275226e+01 2.3839906695332488e+01 1.3336524247788860e+01 -48 23 12
340 1 8.9809360612375357e+00 1.3076612457807290e+01 1.1374236738432499e+01 54 42 16
355 1 1.6343418643531560e+01 2.1011095790778299e+01 1.5792212279305497e+01 -32 -4 64
345 1 9.7952678752893370e+00 1.7942729308640537e+01 1.5301488653445546e+01 80 140 -18
493 1 6.8606001209648344e+00 1.6838141278596428e+01 1.0861458161051727e+01 -51 98 46