LAMMPS data file via write_data, version 4 Jan 2019, timestep = 12500000

512 atoms
1 atom types

1.1022296609377591e-01 2.4724777033912666e+01 xlo xhi
1.1022296609377591e-01 2.4724777033912666e+01 ylo yhi
1.1022296609377591e-01 2.4724777033912666e+01 zlo zhi

Masses

1 18.0153

Atoms # atomic

191 1 2.0775716942102669e+00 2.1064691982476305e+00 2.5218042588733898e+00 38 -22 -19
417 1 1.0731423467482255e+01 2.1320266059079178e+00 5.0121808282108935e+00 0 2 -18
141 1 1.4456735006555428e+00 8.4753944412768512e-01 7.7775543668456972e+00 105 78 -6
105 1 9.9620776011264169e+00 4.9349073595803734e+00 5.1650346467605068e+00 6 94 12
15 1 8.8454294402321914e+00 8.8148043710724799e-01 7.2747763393595744e-01 -4 0 -143
389 1 2.2752183869091706e+01 9.6491788714350299e+00 1.5335655513580155e+00 0 67 -10
327 1 2.3032182663685653e+01 5.3305700164691565e+00 3.9674215635114916e+00 82 5 5
359 1 1.1539779160695529e+01 9.5503567500592066e+00 6.5905054558877225e+00 -37 48 9
243 1 2.0299351095136373e+01 1.0276891268644013e+01 6.2734580493022998e+00 11 -41 -8
121 1 1.4815687009945579e+01 8.6380103033238154e+00 3.4970510103910524e+00 -2 3 -2
211 1 6.9429321762873757e+00 5.7744814534629860e+00 2.7128763753315921e-01 -45 4 -23
503 1 1.4518858596091809e+01 7.1644831503286266e+00 7.0176617989845331e+00 -22 -3 33
323 1 1.6495640211690354e+01 1.1956316041962214e+01 1.3430305656962722e+00 9 -107 24
124 1 2.3467024174570650e+01 2.6119423083840219e+00 7.6722572502352255e+00 -48 166 -22
261 1 1.9915853467989628e+01 6.3851277790401406e+00 4.8154062087493950e+00 -5 36 -100
27 1 1.3474485474851859e+01 1.1533118518807909e+01 6.0533034017037917e+00 14 -35 64
271 1 1.2184503716552427e+01 7.8175391935747465e+00 4.5250983252686048e+00 38 38 -38
210 1 2.4085647285961510e+01 1.0796587247167768e+01 5.6372100884680032e+00 -18 -11 30
509 1 7.5064519397234326e+00 2.8382979571062625e+00 4.2247427216313183e+00 111 45 -81
333 1 3.4302852381623334e+00 9.7025327750704822e+00 6.7784329589857695e+00 20 37 30
267 1 1.3905848484203014e+01 1.1161707473827615e+01 1.9238987102805214e+00 -90 73 -52
436 1 1.1423237332417135e+00 1.0202849752987627e+01 1.4920068735979508e+00 54 65 29
365 1 7.6824935385970834e+00 9.0580645499549597e+00 7.1903699616961623e+00 -14 65 -35
266 1 1.8037451927736758e+01 1.1269118897766743e+01 4.9633055889502318e+00 27 -52 18
369 1 9.6425621657043581e-01 1.0530706197422322e+01 7.6596633333184361e+00 1 56 -5
161 1 6.7184571454930877e+00 1.3372066599793926e+00 2.1788001732684896e+00 36 -33 40
301 1 1.8802449688455109e+01 1.0835618321237488e+01 2.2237338974741179e+00 112 31 30
100 1 1.2383652476566375e+01 1.2339466160214412e+01 3.8017089868244534e+00 45 -125 -24
88 1 3.2975491156513579e+00 3.5969096184972940e+00 4.4925752382437247e+00 -16 23 48
246 1 2.0333434062356883e+01 1.6666471746990028e+00 5.6066994303187894e+00 92 58 100
33 1 9.8364229487710357e+00 1.2298173425611736e+01 2.3369308955242620e+00 -113 -33 -13
277 1 1.6295104741367190e+01 4.6156481867919910e+00 4.1713593088871344e+00 34 2 103
251 1 6.8380561290540447e+00 7.5022341397969505e+00 5.1112540642418232e+00 -43 23 -38
371 1 8.7859256345613197e+00 1.0009483393493388e+01 3.3482882021731850e+00 -75 23 -62
91 1 1.5688105106294723e+01 9.5315224821290201e+00 5.8155099895202254e+00 -20 3 22
459 1 2.0718504990633910e+01 8.7535227576934782e-01 2.3825761035403330e+00 62 -27 50
39 1 4.7764332044128803e+00 1.0590937550187535e+01 4.7994504406387426e+00 7 45 56
65 1 5.5777476191804940e+00 2.5101920999200966e+00 5.8436048778364533e+00 -29 73 -10
285 1 2.5918087576303490e+00 6.4583916598932154e+00 5.0188628231955024e+00 -25 86 -8
263 1 1.0041458024498102e+01 7.5143787289874888e+00 2.9030693664940967e+00 35 136 11
297 1 6.2274310485338011e+00 4.1238702847649709e+00 7.7576592400509927e+00 9 24 -20
342 1 2.4532185802141910e+01 5.3507679280011731e+00 6.1566072404061059e+00 36 -4 11
36 1 1.7449828526225023e+01 3.3012746475217218e+00 1.7416103739635340e+00 114 67 115
453 1 1.7975369976475548e+01 7.4543346911401791e+00 6.2893251161902661e+00 67 -3 7
391 1 2.1144677918297003e+01 1.1907675876830792e+01 1.4297172572697692e+00 -84 -28 -4
488 1 2.1977956408469581e+01 4.7519897405546150e+00 1.3903888170642977e+00 -15 -20 23
215 1 1.9104412580640833e+01 7.9071429512684430e+00 2.5931188131664036e+00 3 -135 -46
457 1 1.1008902325006334e+01 8.5503949584255281e+00 6.4213399003927496e-01 -25 -32 70
497 1 1.3783377415478391e+01 3.2834612967252812e+00 7.8749789600596181e+00 4 27 31
416 1 2.3242453581827068e+01 8.5773779369617458e+00 4.0664834037640798e+00 -11 -24 20
26 1 1.2506394988004676e+01 5.2763533193600116e+00 5.7787424029208987e+00 -23 18 73
185 1 1.0936864126652850e+01 2.2965823933920784e+00 1.9994360762221073e+00 4 9 -10
446 1 2.2831737973539624e+01 2.7847660813593276e+00 4.8630559274424083e+00 17 33 -16
249 1 1.6688285076520966e+01 6.8834144193480107e+00 2.9863757730202889e+00 -64 -51 -29
35 1 6.2525227103673755e+00 1.0096343396239650e+01 3.2153686662186803e-01 -47 28 -56
418 1 7.2751699956045899e+00 5.5445325033530430e+00 3.4473037357673144e+00 -68 -70 -1
231 1 1.9765660120301572e+01 3.8253637440860464e+00 3.1425819629151452e+00 -45 15 34
373 1 1.3444950243882817e+01 9.2030417977887025e-01 6.0020759652820983e+00 49 42 -53
469 1 4.7103887990391264e+00 7.2061671411183443e+00 6.4390183206041955e+00 35 0 27
48 1 2.0161065322327548e+01 6.6694279169371109e+00 5.0240634614582391e-01 14 -6 30
190 1 1.5976907816263040e+01 5.4725851746941501e-01 1.5780149164987043e+00 88 91 21
390 1 1.3886097718129394e+01 3.3457820414331199e+00 4.2254003766941350e+00 -11 -35 -21
229 1 1.3644753691044091e+01 2.4003801534355991e+00 1.6724565654516135e+00 48 36 14
115 1 2.1598728879602866e+01 7.8747422650077281e+00 5.9176255116987120e+00 84 -151 19
83 1 4.0706742066475368e+00 5.6860373281341392e+00 2.0979132503867310e+00 35 -2 10
311 1 2.4138125178120077e+01 1.0707722876738135e+00 3.4956151758279361e+00 11 -62 25
442 1 8.7619928989497797e+00 5.3422845383291291e+00 7.3432681341043127e+00 24 -5 -103
157 1 1.3200033655251595e+00 7.9077411986186181e+00 3.0368387806122699e+00 -15 -15 52
478 1 5.6165106585254321e-01 5.3171760362624090e+00 1.7823527788949718e+00 19 6 32
217 1 1.6461801110068425e+01 5.2488297081009243e+00 7.1302467097776736e+00 109 -44 87
92 1 6.2483428268450778e+00 9.2716916328032948e+00 3.0030737267895891e+00 -50 65 -104
332 1 1.8488471979482124e+00 3.8029930209656122e+00 7.1665212869037598e+00 15 -25 -99
186 1 9.2571083419307154e+00 1.0974673552409500e+01 5.9545731478385004e+00 -24 179 44
147 1 9.4403698721365821e+00 4.8028709484105594e+00 8.9834602614129866e-01 -28 33 92
309 1 1.7494450056369601e+01 2.2217144638516912e+00 5.8258546722596005e+00 60 46 -47
200 1 3.2076969914055518e+00 1.1774312178263212e+01 3.0973974350156865e+00 56 100 -21
236 1 2.4023013971507940e+01 4.0592647851574620e-01 7.2318506658748105e-01 42 86 61
225 1 1.6120503961561553e+01 6.0551191302764078e+00 3.4885579566141084e-01 30 64 19
158 1 5.1752377269705463e-01 7.4559032277755364e+00 8.1513087357684828e+00 -53 62 -77
207 1 2.2421115908057310e+01 6.7988005341099003e+00 8.0426280458166843e+00 36 -32 6
408 1 4.3945438086304218e+00 8.0603939111654004e+00 1.3156094214163261e-01 -130 35 61
477 1 6.7626451514914532e-01 9.7388848827547114e-01 1.0260650922271179e+01 35 -6 42
270 1 2.5310773450160871e+00 9.5335703485394738e+00 1.4200435612502247e+01 36 143 106
394 1 1.9258662488349643e+01 3.0413892554072852e+00 1.3811865449293201e+01 -114 -13 -19
242 1 2.2302999233829421e+01 7.1969032915269979e+00 1.2311100788209920e+01 17 -2 -58
108 1 6.9206111457620452e+00 4.5550371627350579e+00 1.2173413796988612e+01 48 -29 31
319 1 1.4817182794265547e+01 7.7739344258771217e+00 9.5785848918281946e+00 -33 -3 55
250 1 2.9511557208164652e+00 3.8168907520665374e+00 1.4393148993123859e+01 -3 11 165
356 1 1.8362833579085589e+01 8.1763504164121130e+00 9.1968980462910750e+00 -70 4 -7
293 1 1.9763547929363543e+01 1.2252004277030828e+01 1.0869904896160422e+01 12 122 56
102 1 7.2088058954809107e+00 9.7483533198500503e+00 1.2532461432091926e+01 29 -16 19
235 1 1.7571750164265119e+01 3.9046020537338166e+00 9.1442538489334577e+00 26 -65 146
76 1 4.9225607840145669e+00 1.0404504373444093e+01 8.9938720047551985e+00 18 20 11
165 1 6.2274260413810056e+00 2.1695668476302316e-01 1.1324754477528268e+01 90 -3 107
156 1 2.1027953231654262e+01 2.0693805088794326e+00 1.5929535855005259e+01 37 31 -28
445 1 9.0291937407383482e+00 4.7592766420444557e+00 1.6374364216017980e+01 112 70 -3
294 1 1.2782418733308342e+01 8.2554898001393362e-01 1.0075681057216457e+01 35 36 -72
125 1 1.3222011804553038e+01 1.1101876190674746e+01 1.1009569169821065e+01 -46 -51 -16
465 1 9.0973253089531436e+00 1.1515970308366432e+01 1.0252350941034964e+01 35 31 42
439 1 1.1005026548788409e+01 9.6616841767945250e+00 1.4557949043921983e+01 23 -32 -72
87 1 1.0882544246891378e+01 1.1646246532381488e+01 1.2470149704145983e+01 -15 37 89
352 1 3.4947796013199917e-01 4.5725399192460943e+00 1.4270890020880644e+01 51 -46 -63
218 1 5.2671167170101567e+00 1.0349638325095102e+01 1.4303702843472079e+01 -46 -13 -33
329 1 1.0611863819334994e+01 9.0983067511476392e+00 9.0380573464590750e+00 14 -127 -71
431 1 3.9087173678154725e+00 5.4016827712088658e+00 8.7558030178933990e+00 -61 -28 -34
366 1 1.2089032075432129e+00 5.5427827691096558e+00 1.0571783742092983e+01 161 9 -48
163 1 1.0867394568200215e+01 3.8868280202727461e+00 8.5063243109997462e+00 -31 -55 -5
237 1 1.7897240371957448e+01 1.0476235714241934e+01 1.2265618153909600e+01 17 -45 -25
401 1 1.2022458066724528e+01 8.4701694984093645e-01 1.5457280611957506e+01 30 11 24
252 1 1.6395161478405470e+01 1.2225539349796380e+01 1.3589386043381690e+01 -53 -82 4
430 1 1.6517394884864860e+01 6.5771073532161868e+00 1.3909258036168138e+01 58 45 19
61 1 1.7957490433290403e+01 4.6044170221270235e+00 1.5527927691493868e+01 92 -62 98
443 1 2.0891610493280606e+01 4.8748679737333918e+00 1.2249344785441673e+01 -106 15 -18
67 1 1.9728243425367922e+00 9.1538960087811212e+00 1.1698463478726666e+01 -29 -83 -31
164 1 1.9986396216707188e+01 2.7900185045951917e+00 8.4071404730844659e+00 51 16 143
44 1 1.2670355738517490e+01 8.4009055707970148e+00 1.0489360131605210e+01 -30 -33 101
260 1 3.4932936719877055e+00 1.1634950349777556e+01 1.0723275558244545e+01 -30 0 64
184 1 1.8626702726088840e+01 5.8124909033959504e+00 1.0871682598036932e+01 -4 23 18
507 1 3.6918223640537327e+00 7.1003949270791171e+00 1.0862020579196050e+01 -63 26 -22
154 1 1.5707698914773436e+01 5.7247979409422411e+00 1.1419116689522188e+01 93 -36 2
482 1 1.6877348105540757e+00 1.2353068305330028e+01 1.4306446685568210e+01 0 77 39
378 1 2.1783932397680577e+01 4.4728202057048039e+00 9.6310989593152136e+00 16 -14 -78
130 1 1.5338859816376901e+01 3.3300979315476043e+00 1.4553056351029875e+01 -26 -38 6
112 1 1.6449952225161230e+01 9.8111829187223307e+00 9.9388690498055112e+00 20 99 -40
17 1 2.2861956149429577e+01 3.1721524319888870e+00 1.3225797541113074e+01 29 12 23
195 1 2.8681781710832865e-01 6.9248511193346838e+00 1.3147524644897894e+01 -18 -7 93
219 1 6.5288107648674893e+00 2.9069587158142038e+00 1.4416207498832263e+01 -17 -4 -102
335 1 6.9498416683370179e+00 2.8281349720756102e+00 9.8530905234511170e+00 25 -28 97
471 1 1.3131233894725650e+01 7.9566107688300010e+00 1.3485376208432349e+01 -79 -29 19
361 1 1.7035061097797765e+01 1.6203044602158427e+00 1.2552494222382181e+01 -64 106 -9
127 1 9.3177134910769404e+00 5.9997414031147516e+00 1.2543063283269367e+01 61 60 86
1 1 2.4426367882730997e+01 1.0897093430960865e+01 1.0787056079004328e+01 -63 -50 78
403 1 5.9699599615797592e+00 8.6864384137538373e+00 1.0617604998839992e+01 -65 66 13
415 1 8.3341622955609793e+00 7.1436693035363055e+00 9.4203715190765784e+00 -58 -42 30
348 1 2.2312575010979884e+01 7.4275916107079853e-01 1.3230628348288237e+01 -11 -18 16
89 1 1.1457544247059221e+01 5.9083920637260334e+00 1.0596284550468880e+01 -15 11 -184
138 1 2.2692070071122327e+01 8.6213210743780344e+00 1.0294222927063821e+01 185 39 23
460 1 1.3386267347442248e+01 4.0566927989119792e+00 1.1242358439178432e+01 -121 123 29
259 1 1.8585678370971650e+01 7.7477963878215412e+00 1.3045041465158700e+01 -14 56 38
3 1 5.0189925909098552e+00 7.2861425216577356e+00 1.5061321802601741e+01 19 58 33
315 1 1.5753483182815113e+01 2.1345006333827619e+00 1.0331171091395010e+01 -65 88 97
228 1 2.4265675182512506e+01 3.2713145291661512e+00 1.0833491966516853e+01 -35 18 19
505 1 2.3020762254107144e+01 1.0196162332422924e+01 1.5310286387161455e+01 0 27 -50
72 1 7.6125355733766797e+00 7.2133444504944295e+00 1.6237780563739495e+01 23 57 47
172 1 1.0654006849664862e+01 4.4214631378354321e+00 1.4019546744263625e+01 -18 -106 35
43 1 7.0084531817627205e-01 8.7753162848112538e+00 1.5721102226798576e+01 -19 -9 14
212 1 1.5522203989174695e+01 9.2445976354555857e+00 1.4405510475000153e+01 -12 -38 -44
336 1 1.2106958648078770e+01 2.0621300180916853e+00 1.2947523666552987e+01 36 -12 -127
398 1 1.9699788225265102e+01 6.4390521642519429e+00 1.6371372420991527e+01 -40 -21 11
419 1 8.7429480040490049e+00 8.0434241111466367e+00 1.4037537056659168e+01 37 20 13
97 1 7.9251188970352144e+00 5.0121370106228047e-01 1.3734524842196361e+01 29 71 -9
139 1 2.1165834493798382e+01 8.0755765822009451e+00 1.4493248450624739e+01 -18 -3 -15
14 1 1.9298808690048819e+01 6.8908938667720254e-01 1.0334261494959112e+01 43 -29 41
272 1 3.6137941340460147e+00 9.7786884917093697e-01 1.4118518079769309e+01 -21 4 114
81 1 1.3153430745140662e+01 5.2041550307184359e+00 1.4200776309511173e+01 50 101 -14
447 1 2.0473605611371983e+01 9.8427163652090162e+00 9.3105950695705779e+00 0 -120 21
188 1 4.6398359041165724e+00 5.6101112822139845e+00 1.2992678367002094e+01 8 -5 69
104 1 1.9308771234999291e+01 1.0314172132485298e+01 1.5472752126726377e+01 84 25 -22
325 1 2.3844372023358282e+01 1.1727337560443983e+01 1.3503088800225845e+01 -91 34 32
280 1 9.5791352364355546e+00 1.5957760176326388e+00 8.6897104172879249e+00 19 -47 171
502 1 1.9722158323854909e+01 3.7444481383226208e-01 1.3037589987162665e+01 -38 -28 -43
399 1 9.9925254019775149e+00 5.0906332150193012e-01 1.1400684986189994e+01 24 57 -17
461 1 3.1368827152026828e+00 2.9947443748770403e-01 1.1177653518672939e+01 11 23 -11
142 1 5.6451215652290525e+00 1.2204809098094305e+01 1.6469979599398965e+01 23 5 55
331 1 1.6371032756006624e+01 1.1745772727002587e+01 8.3584036436187183e+00 41 26 -21
180 1 1.7383066097834952e+01 7.2038327682026964e+00 2.0754392953914003e+01 -5 288 -23
298 1 2.0467136686763933e+01 3.2369708096007734e+00 1.9792014160862500e+01 4 44 1
7 1 1.2046221481911624e+01 1.2125589913285179e+01 2.3132474776699532e+01 42 3 46
404 1 6.7977358017622311e+00 3.8229498775794086e+00 2.1085522107805939e+01 -26 134 52
310 1 1.4718302012227230e+01 2.2480373878652657e+00 1.6867036547424988e+01 -9 -20 8
162 1 1.3220890417739010e+01 1.0137963701863148e+01 2.4371201550058991e+01 -36 1 -7
283 1 5.9006570925761910e+00 3.1548440297514455e+00 2.4541677448405302e+01 93 -33 59
55 1 1.2504221881822533e+01 8.0764961456363125e+00 2.1189450192610057e+01 24 69 -16
499 1 4.0956100659807610e+00 9.8293569349785948e+00 2.1302905330716612e+01 31 -23 -73
458 1 1.3762097861752517e+01 4.4005068921307293e+00 2.4174447380514305e+01 -31 35 -1
94 1 5.4269576574184368e+00 1.3949756596160936e+00 2.0531170121367531e+01 -51 38 39
74 1 1.9762945048590090e+01 1.2173825823687224e+01 2.3456259326409018e+01 12 61 -8
234 1 9.2743831062287594e+00 1.1247317437069599e+01 2.2293074256002271e+01 58 -26 25
145 1 1.0372976855772468e+01 2.5127894377397095e+00 1.7362121684030708e+01 30 4 -50
176 1 3.7668237251693397e+00 6.4635878540842064e+00 1.9087298871573289e+01 -97 -84 -25
269 1 1.0070028150432028e+01 1.0329081294646871e+01 1.7549468292214804e+01 21 -42 7
456 1 1.0820550342995302e+01 5.4844933951309551e+00 2.1216210267460454e+01 -32 -37 15
4 1 2.1389600959702214e+01 4.5752634704389497e+00 1.7362068086449895e+01 24 -76 12
248 1 2.0887567710023376e+01 2.2741232783587719e+00 2.4491393407541374e+01 -33 28 5
137 1 1.6858627619452673e+01 1.6359164787031162e+00 2.2500512695570482e+01 -10 -12 53
134 1 1.8645425860941931e+01 8.0705658536545677e+00 1.8363444077054361e+01 -73 -19 21
345 1 3.4952633754893623e+00 9.2616136486992762e+00 1.8581297720860618e+01 77 146 -23
214 1 2.0764966037924246e+01 5.4348216037000476e+00 2.1357025916237692e+01 21 105 4
486 1 1.5332796688740610e+01 8.5088934310791213e+00 2.3614570237555192e+01 54 14 -14
421 1 4.4447029415013128e-01 2.6256379836497552e+00 2.3455813971630711e+01 15 3 74
257 1 1.8648513632020303e+00 8.8316885625717330e+00 2.3969772510224512e+01 -20 13 32
291 1 6.1595070108699828e+00 2.9379647754879801e+00 1.7005020482929126e+01 16 115 79
197 1 2.2270672797261962e+01 7.9344950838494421e+00 2.4064106029165067e+01 0 35 41
481 1 1.6862134260881643e+01 1.0187212358391358e+01 1.6852558446013163e+01 34 -10 -13
279 1 2.0734007097133055e+01 1.0498354177611875e+01 1.8373086627335390e+01 -43 166 41
295 1 2.2441315083044810e+01 8.8917676412506577e+00 2.1601860291750249e+01 -48 -14 -16
143 1 1.5892136049018464e+00 1.3327880978848161e+00 2.1393220132873459e+01 30 9 3
103 1 1.0522825491376077e+01 9.7985107389430208e+00 2.0122317037258448e+01 -18 41 -56
422 1 1.7147564707331352e+01 1.1942119177671071e+01 2.0893465383659439e+01 4 68 70
306 1 7.8465448404544003e-01 1.0320527564795373e+01 1.7949269666178925e+01 -8 62 -64
427 1 4.1235626635718292e+00 4.9234617915713610e+00 2.2176449007059734e+01 129 -14 26
241 1 6.2922138245074128e+00 9.4751856255732569e+00 1.7592604998542075e+01 -6 -107 -30
337 1 1.7018725458120386e+01 1.1038849431832775e+01 2.3588996971173327e+01 28 26 -43
435 1 1.0782922229484399e+01 1.4194841580487170e+00 2.1806713192310315e+01 -36 -4 -24
194 1 1.5285155937149771e+01 1.1567710636364694e+01 1.8765019110198750e+01 56 107 7
230 1 1.4728765197720184e+01 3.4831992385540897e+00 2.1918980728577971e+01 7 -35 -137
504 1 1.4834047178586314e+01 8.1552822880497562e+00 1.7883402884720912e+01 -43 -11 55
341 1 1.8170960471798654e+01 5.6912507220606203e+00 2.3216720911769436e+01 37 -45 61
120 1 8.9397277013639123e+00 3.1607087490185077e+00 2.3051212267012374e+01 2 -60 60
483 1 2.4184957308694710e+01 1.7529114878552168e+00 1.7517051805937893e+01 29 51 20
57 1 1.2605699381069442e+01 3.4377070014671802e+00 1.8178974257691564e+01 -23 1 41
177 1 1.5440363449212377e+01 9.1020469593204574e+00 2.0787831404764184e+01 -18 -38 42
300 1 3.6196063673147449e-01 8.4485042391393481e+00 1.9936721238889294e+01 -84 64 30
491 1 1.0019018007689791e+01 7.4990246406305534e+00 1.7621244360913103e+01 -32 -25 -27
377 1 1.2514255026644879e+01 1.1786349826024926e+01 2.0303730896645465e+01 20 12 -112
302 1 6.2622484919233736e+00 5.1134288800520320e+00 1.8680888524407347e+01 34 -73 -32
40 1 2.2467506937439126e+01 1.7627401859880536e+00 2.1048710109329992e+01 -6 39 49
240 1 3.3615880647366962e+00 2.9653507164217414e+00 2.0019613121168440e+01 -224 140 57
255 1 6.8753948341675351e+00 7.0017654919488359e-01 1.8250665661242213e+01 -125 2 92
426 1 7.9757269786548610e+00 6.6666441491892749e+00 2.2731589175033992e+01 76 -5 65
222 1 2.3019286090319063e+01 7.4735722891194003e+00 1.7749963262288389e+01 18 51 52
133 1 7.2669700794701502e+00 9.5867451568546400e+00 2.0070184088168201e+01 -31 72 -49
265 1 1.1494323855578801e+00 6.1122084602205238e+00 2.1469191275279211e+01 -73 -56 66
69 1 2.4161091365389769e+01 4.5995879952003360e+00 1.6976930770720774e+01 -17 3 -19
153 1 5.8231810855986268e+00 4.5336139740945786e-01 2.3179435714454200e+01 0 -28 74
73 1 2.2786450547937445e+01 4.0637301794689762e+00 2.2848794652055318e+01 -52 7 24
405 1 3.4588935026303758e+00 3.2628747271059320e+00 1.7288411118123477e+01 -31 -16 45
31 1 2.9204680376916525e-01 4.0044142465863590e+00 1.9949746098283008e+01 -45 -14 127
340 1 1.2609655314877266e+01 6.7609129504362517e+00 1.6754551709991905e+01 54 49 12
223 1 2.1153963254453600e+01 7.7407175633410539e+00 1.9612622987684230e+01 114 24 11
487 1 2.2370262365841116e+00 8.6184835672096494e-01 1.6735711878216179e+01 22 51 -8
292 1 8.5641179586136271e+00 9.2848772552861387e+00 2.3761300241802751e+01 -12 17 76
107 1 5.4539965496611726e+00 7.5413150383212404e+00 2.1767243599342954e+01 -37 51 -137
12 1 1.8480828956322007e+01 3.1669116147596834e+00 2.3862896691477694e+01 58 -42 54
313 1 1.7056844114338979e+01 3.0004629272609726e+00 1.8098935166811277e+01 -42 27 32
144 1 1.1381372255252556e+01 5.9224001804140025e+00 2.3787008176795428e+01 -18 41 38
409 1 1.3184281720886750e+01 5.7270871604466835e+00 1.9598463665511485e+01 -53 86 51
187 1 2.9291143863094522e+00 1.2353937728458749e+01 1.7427998688706928e+01 -2 17 -12
170 1 1.3189305722639958e+01 1.7224077534099957e+00 2.0661529080279692e+01 13 41 -24
96 1 1.5917700250622133e+01 4.8380698607915615e+00 2.0006706690883739e+01 233 46 57
151 1 2.3747579446123503e+01 1.1850600286784687e+01 2.3743516192502032e+01 -32 -26 -8
71 1 2.1807171260926282e+01 1.1305849076472123e+01 2.1792068686689095e+01 65 -62 -64
490 1 1.5264884179605571e+00 1.0294167302983849e+01 2.1744300118421581e+01 17 -98 -1
245 1 1.7453356920692908e+01 7.3934237901032462e-01 2.0107886768918309e+01 -25 9 77
384 1 9.6413840891001161e+00 4.6872356397942921e-01 1.9258767343209808e+01 2 6 10
42 1 2.4641419301952837e+01 6.4126758805723769e+00 2.4125653660469876e+01 8 76 -73
288 1 8.7203235868136026e+00 6.7542451990041998e+00 2.0116589601828053e+01 -64 -24 -86
253 1 1.9517581484453913e+01 5.7841508746947667e-01 1.7787877954465934e+01 -3 22 -6
8 1 2.3006762044163111e+01 1.1772951116704020e+01 1.7796885014306810e+01 -21 25 -36
34 1 7.5589155231514491e+00 1.2388320945707786e+01 2.0365394188689777e+01 -129 -11 141
95 1 1.2919209031207203e+01 1.1001410972511774e+01 1.6883605853864410e+01 43 133 5
344 1 2.9358002588881633e+00 3.6803306502734121e+00 2.4643768642956509e+01 34 -51 2
385 1 2.4986631281558598e+00 6.3298395953768143e+00 1.6668040203546703e+01 55 27 59
328 1 2.1417996210260064e+00 2.1981184292572753e+01 4.4544810628765950e+00 73 81 -18
62 1 1.7063944987952748e+01 2.1845938412231636e+01 3.5741261709443619e+00 80 -40 -53
149 1 1.0726386879019008e+01 1.5226397353583311e+01 4.9160920076244361e+00 -55 49 -5
441 1 1.4253910382279104e+01 2.4041351624476604e+01 3.4216814538475964e+00 3 -58 -27
424 1 1.5825886002240443e+01 1.6293800123554419e+01 2.0768605915098002e+00 32 15 -17
351 1 1.7746910067279597e+01 1.5826495193393415e+01 4.4226660178934001e+00 25 -40 -61
374 1 5.9149285070859108e+00 2.0399171992170263e+01 5.3544206283317433e+00 -15 47 -1
268 1 1.4349650387757466e+01 2.1071702549288894e+01 4.5915979282206134e+00 -121 2 0
254 1 2.1638545223971118e+01 2.2771622753747401e+01 2.1001471115019683e+00 50 98 40
98 1 1.7334813642583903e+01 1.3518016352824651e+01 6.0450683807267902e+00 79 80 3
199 1 1.5194350669994761e+00 1.9479459364608715e+01 7.2348876390750432e+00 16 71 -31
423 1 5.8438935650188020e+00 1.2946104504684758e+01 5.8601096172026628e+00 -32 13 53
496 1 2.4138487182221297e+01 1.7504102114894355e+01 3.8995783745499661e+00 -3 -22 14
135 1 1.9359835942762416e+01 1.5088552192978367e+01 7.6021066236286119e+00 -5 48 -71
37 1 1.2165552553313182e+01 2.4111700465368131e+01 1.5012476079084571e+00 54 22 -52
454 1 8.8900877240231644e+00 2.4500270025411037e+01 4.5950193369770975e+00 -47 40 18
5 1 8.2109638284880297e+00 1.8900311602993987e+01 1.9192161932881531e+00 46 43 4
23 1 2.3248778866113686e+00 1.8087009475004482e+01 2.5887544451580138e+00 50 26 13
286 1 2.1699086862218202e+01 1.6588364427746814e+01 7.2882812725365760e+00 50 -24 9
281 1 1.8336521811258987e+01 2.3906927342879939e+01 4.7715566319698111e+00 37 -30 101
282 1 5.6620085009307486e+00 2.4485788660358192e+01 6.3043848106511176e+00 34 18 72
208 1 1.0655205541860479e+01 2.0251002278105769e+01 4.5445600153528467e+00 22 86 -14
437 1 1.8432975883298731e+01 2.0202900293102935e+01 5.3575643647560334e+00 9 15 -117
52 1 1.8617393332199534e+01 2.3559638345533500e+01 1.2869452248716331e+00 108 -92 136
372 1 8.0546686313879814e+00 1.4015117142492270e+01 3.9547474517543306e+00 14 -9 11
256 1 1.3817472078768771e+01 1.6180487572656727e+01 3.7541214300810473e+00 38 20 -27
388 1 5.2626975838219945e+00 2.3911453336604804e+01 2.4194091447751012e+00 60 -12 39
166 1 1.1108768364561360e+01 1.5854419749452896e+01 1.4431366892690378e-01 35 -8 -21
50 1 1.7258551985368943e+01 2.0424965999067595e+01 9.3394498987103114e-01 9 35 -38
111 1 2.2025721670291937e+01 1.9759388763539398e+01 1.5960543433548067e+00 3 39 94
2 1 1.1332328659575223e+01 2.4272605417870476e+01 7.5707677294599209e+00 -52 4 -18
221 1 2.0887422745136554e+01 2.3158218764839980e+01 5.8497750562203397e+00 15 9 34
66 1 3.8540405247851650e+00 1.4109288343417729e+01 1.0476961097557389e+00 -28 25 -33
376 1 9.3000860692951761e+00 1.7307148545259111e+01 6.4414805202777963e+00 -85 -2 -10
30 1 1.4543057791346211e+01 1.4376996936963129e+01 5.5117717170536222e+00 -86 -2 -9
262 1 2.4362022089869310e+01 1.9855787373651459e+01 5.3956837920309093e+00 13 49 -41
189 1 1.4468804482786902e+01 1.8680193013180375e+01 5.2574360666874558e+00 115 -58 -33
464 1 2.3749027987052703e+01 1.4331573065227015e+01 2.9176071358461191e+00 12 20 -22
434 1 6.4868996499228295e+00 2.2746364553158163e+01 4.6411276713361778e+00 50 -33 -75
53 1 2.1270189575860844e+01 1.3739768523882869e+01 3.2713333272569018e+00 54 93 146
206 1 1.2399690057533789e+01 2.1093973083138579e+01 2.6305826362447400e+00 27 -86 32
318 1 2.0036666236653314e+01 1.6590150998435327e+01 6.7344359198379766e-01 17 -4 157
54 1 5.6578577647723218e+00 1.8178000875154147e+01 5.1564448405276664e-01 -4 19 41
171 1 1.1898339614107096e+01 1.8459680479938605e+01 6.3964214094523193e+00 -39 41 18
247 1 2.3337954718422996e+01 2.3019886582961107e+01 4.3075051341790305e+00 14 -27 13
6 1 3.4285204014447457e+00 1.4099001303072717e+01 6.4341018036810240e+00 85 22 -32
93 1 2.4143414314855409e+01 1.4306997848680721e+01 3.2615768432922332e-01 -38 -19 20
128 1 1.2991064826076395e+01 1.4394335279687194e+01 1.7693977278723565e+00 32 6 -18
278 1 1.9943845017840765e+01 1.6055305488461158e+01 3.2969649220543493e+00 -93 -109 47
123 1 2.1395869567626239e+01 1.7494769647929381e+01 4.8165717736955918e+00 -71 -10 -3
317 1 4.4874995316177806e+00 1.6161339079104540e+01 2.5435641034709371e+00 117 -24 -18
203 1 1.1501291108206766e+00 1.5605574732524557e+01 5.3636807819808974e+00 117 -117 88
379 1 6.3394184416479629e+00 1.6176303903446193e+01 4.3479453351057336e+00 130 -12 60
472 1 8.5062956947151569e-01 1.2917100607408562e+01 4.5703126139776868e+00 30 -36 64
182 1 2.0287599255703757e+01 2.1324987732609493e+01 7.8419495289687688e+00 117 51 47
18 1 1.2732548828033320e+01 1.9201357441078613e+01 8.3984198488463557e-01 39 55 42
410 1 9.2904048593666708e+00 1.3583399638431979e+01 7.0021088219650265e+00 23 148 4
462 1 4.2045226284150372e+00 2.0679352202006907e+01 8.6360894147340039e-01 -75 8 41
382 1 2.8972560527104005e+00 2.3988668246003765e+01 3.1815856992368845e+00 52 -5 55
224 1 1.2444582842539786e+01 1.5607263810541388e+01 7.1352447736569955e+00 54 -92 1
316 1 8.3219171126493805e+00 2.1348348501699139e+01 5.4134365922927019e-01 43 120 64
489 1 1.7118858823275232e+01 1.7745606648555729e+01 6.0887258076395350e+00 80 183 -35
322 1 1.4665558835050874e-01 2.3120375851204059e+01 6.8929582906193936e+00 25 46 0
82 1 3.3088303378163801e+00 2.1721431260197892e+01 7.3011258975516151e+00 -8 0 10
438 1 7.2813859461587516e+00 1.5628859947208705e+01 7.6770026265581555e+00 28 -20 -54
411 1 9.7179299831806638e+00 2.3109843893816251e+01 2.1504765942652919e+00 23 99 169
155 1 1.4109423854146936e+01 2.2317908774390727e+01 7.1291968410589295e+00 -44 26 37
368 1 2.4291713373568712e+01 1.5643331384886340e+01 7.7507878743613485e+00 45 -18 48
201 1 1.9504992192546339e+01 1.9237412922490680e+01 1.4265218924268022e-01 -100 -45 40
290 1 2.3798121192320806e+01 1.7924122464493845e+01 1.0915241806354672e+00 -8 -87 -71
449 1 2.0903314779155547e+01 2.0151916432313147e+01 4.1593034165652911e+00 -45 82 40
314 1 3.0719383899143606e+00 1.7576788393062152e+01 5.6709759946045590e+00 -19 18 -15
476 1 1.5316292689640871e+01 1.8381759580278011e+01 6.5892700183557795e-01 -30 -4 -47
46 1 1.9757241646928675e-01 2.1485390880256418e+01 2.2708988264224859e+00 40 -13 58
198 1 9.7863700010391135e+00 2.2248621339486270e+01 6.1549494299206957e+00 -31 43 17
148 1 4.6473300738251346e+00 1.6535653116236478e+01 7.4093334243444451e+00 -40 41 67
413 1 3.7717699140563949e+00 2.0104483422532489e+01 3.7800381602129174e+00 -2 6 -20
284 1 7.8312903009140378e+00 1.8711881118109407e+01 4.7071408854349759e+00 -82 -54 -17
338 1 8.2798998767469634e+00 1.6065973628455268e+01 1.5304668643247958e+00 -1 -2 42
432 1 1.1063636067150282e+01 1.7591862826453987e+01 3.0476170262793461e+00 38 -62 2
383 1 1.6089131163397067e+01 1.4252398069276703e+01 6.1641269989855441e-01 -44 90 -17
79 1 5.8877287945816903e+00 2.2695421037475725e+01 3.2325168820744077e-01 8 -96 104
168 1 2.2503646390866873e+01 1.9565029304325389e+01 7.7677272046079455e+00 99 -61 -48
213 1 2.1785789907086546e+01 1.2628007337889866e+01 5.7953039627620182e+00 -48 1 17
320 1 1.4659145020358908e+00 2.3278985795474522e+01 5.2241478972826827e-01 17 81 35
397 1 1.6468503169141840e+01 2.4416268123957771e+01 6.7303557059048646e+00 -46 45 -45
106 1 2.2427278598972009e+01 2.4425129358041524e+01 7.8966078543620863e+00 5 -19 -2
363 1 3.8451654847136556e+00 2.4113573426194353e+01 8.3071789883702625e+00 -20 -40 15
350 1 5.5773818056883826e+00 2.0140454254327960e+01 8.2409330749611449e+00 25 0 42
32 1 8.2077001128702864e+00 2.1080762731530172e+01 8.1421898661317602e+00 -59 109 -47
204 1 1.4897184318684515e+01 1.8317249931291268e+01 8.2847527133578041e+00 16 -15 -192
473 1 1.2160654349015369e+01 2.0427246593157921e+01 1.2264283958804722e+01 -43 -26 67
339 1 1.5460951660040301e+01 2.4412929086699663e+01 1.3573073052255566e+01 27 50 -17
346 1 1.5242808271327721e+00 1.4959379257922180e+01 1.2323658736139475e+01 47 26 -108
299 1 1.4696938688494347e+01 1.9524465949604693e+01 1.1566180290073460e+01 52 19 58
349 1 4.5595799577373208e+00 2.1711505625450716e+01 1.3508581207005443e+01 -15 19 51