LAMMPS (4 Jan 2019)
Reading data file ...
  orthogonal box = (0.0779968 0.0779968 0.0779968) to (24.757 24.757 24.757)
  1 by 2 by 3 MPI processor grid
  reading atoms ...
  512 atoms
  reading velocities ...
  512 velocities
Neighbor list info ...
  update every 1 steps, delay 0 steps, check yes
  max neighbors/atom: 2000, page size: 100000
  master list distance cutoff = 6.3065
  ghost atom cutoff = 6.3065
  1 neighbor lists, perpetual/occasional/extra = 1 0 0
  (1) pair sw, perpetual
      attributes: full, newton on
      pair build: full/nsq
      stencil: none
      bin: none
Setting up Verlet run ...
  Unit style    : real
  Current step  : 0
  Time step     : 5
Per MPI rank memory allocation (min/avg/max) = 2.696 | 2.697 | 2.698 Mbytes
---------------- Step        0 ----- CPU =      0.0000 (sec) ----------------
Time     = 0.000000 Temp     = 240.322396 Press    = 833.451408 
PotEng   = -10.552957 KinEng   = 0.714956 Lx       = 24.679006 
Ly       = 24.679006 Lz       = 24.679006 Density  = 1.019008 
Volume   = 15030.831860 
---------------- Step    10000 ----- CPU =      5.6639 (sec) ----------------
Time     = 50000.000000 Temp     = 213.630726 Press    = 374.047539 
PotEng   = -10.596758 KinEng   = 0.635549 Lx       = 24.734982 
Ly       = 24.734982 Lz       = 24.734982 Density  = 1.012105 
Volume   = 15133.340254 
---------------- Step    20000 ----- CPU =     11.3724 (sec) ----------------
Time     = 100000.000000 Temp     = 194.931380 Press    = 173.433059 
PotEng   = -10.643053 KinEng   = 0.579919 Lx       = 24.714636 
Ly       = 24.714636 Lz       = 24.714636 Density  = 1.014607 
Volume   = 15096.026924 
---------------- Step    30000 ----- CPU =     17.0335 (sec) ----------------
Time     = 150000.000000 Temp     = 196.830305 Press    = 1089.007081 
PotEng   = -10.702202 KinEng   = 0.585568 Lx       = 24.670969 
Ly       = 24.670969 Lz       = 24.670969 Density  = 1.020004 
Volume   = 15016.150297 
---------------- Step    40000 ----- CPU =     22.6647 (sec) ----------------
Time     = 200000.000000 Temp     = 206.140891 Press    = 818.878061 
PotEng   = -10.659983 KinEng   = 0.613267 Lx       = 24.743359 
Ly       = 24.743359 Lz       = 24.743359 Density  = 1.011078 
Volume   = 15148.720738 
---------------- Step    50000 ----- CPU =     28.1992 (sec) ----------------
Time     = 250000.000000 Temp     = 220.660148 Press    = 857.314509 
PotEng   = -10.611517 KinEng   = 0.656461 Lx       = 24.687592 
Ly       = 24.687592 Lz       = 24.687592 Density  = 1.017945 
Volume   = 15046.523950 
---------------- Step    60000 ----- CPU =     33.9801 (sec) ----------------
Time     = 300000.000000 Temp     = 214.423651 Press    = 402.269572 
PotEng   = -10.668721 KinEng   = 0.637908 Lx       = 24.758674 
Ly       = 24.758674 Lz       = 24.758674 Density  = 1.009203 
Volume   = 15176.867912 
---------------- Step    70000 ----- CPU =     39.7824 (sec) ----------------
Time     = 350000.000000 Temp     = 210.289016 Press    = 1184.815461 
PotEng   = -10.693877 KinEng   = 0.625607 Lx       = 24.700381 
Ly       = 24.700381 Lz       = 24.700381 Density  = 1.016365 
Volume   = 15069.920962 
---------------- Step    80000 ----- CPU =     45.5457 (sec) ----------------
Time     = 400000.000000 Temp     = 210.360974 Press    = 909.157002 
PotEng   = -10.675750 KinEng   = 0.625821 Lx       = 24.716835 
Ly       = 24.716835 Lz       = 24.716835 Density  = 1.014336 
Volume   = 15100.056983 
---------------- Step    90000 ----- CPU =     51.4039 (sec) ----------------
Time     = 450000.000000 Temp     = 208.041759 Press    = -125.729699 
PotEng   = -10.624681 KinEng   = 0.618922 Lx       = 24.733503 
Ly       = 24.733503 Lz       = 24.733503 Density  = 1.012287 
Volume   = 15130.624997 
---------------- Step   100000 ----- CPU =     57.1640 (sec) ----------------
Time     = 500000.000000 Temp     = 220.829891 Press    = 770.006236 
PotEng   = -10.695243 KinEng   = 0.656966 Lx       = 24.707279 
Ly       = 24.707279 Lz       = 24.707279 Density  = 1.015514 
Volume   = 15082.548581 
---------------- Step   110000 ----- CPU =     62.9289 (sec) ----------------
Time     = 550000.000000 Temp     = 215.496545 Press    = 409.078749 
PotEng   = -10.652396 KinEng   = 0.641100 Lx       = 24.773360 
Ly       = 24.773360 Lz       = 24.773360 Density  = 1.007409 
Volume   = 15203.891578 
---------------- Step   120000 ----- CPU =     68.7348 (sec) ----------------
Time     = 600000.000000 Temp     = 205.854905 Press    = 1491.634769 
PotEng   = -10.716558 KinEng   = 0.612416 Lx       = 24.653821 
Ly       = 24.653821 Lz       = 24.653821 Density  = 1.022134 
Volume   = 14984.861107 
---------------- Step   130000 ----- CPU =     74.5474 (sec) ----------------
Time     = 650000.000000 Temp     = 211.456804 Press    = 184.130385 
PotEng   = -10.670073 KinEng   = 0.629081 Lx       = 24.779799 
Ly       = 24.779799 Lz       = 24.779799 Density  = 1.006624 
Volume   = 15215.748349 
---------------- Step   140000 ----- CPU =     80.2959 (sec) ----------------
Time     = 700000.000000 Temp     = 205.837782 Press    = 204.064383 
PotEng   = -10.658879 KinEng   = 0.612365 Lx       = 24.758557 
Ly       = 24.758557 Lz       = 24.758557 Density  = 1.009217 
Volume   = 15176.652500 
---------------- Step   150000 ----- CPU =     86.0918 (sec) ----------------
Time     = 750000.000000 Temp     = 213.582250 Press    = 966.961479 
PotEng   = -10.668258 KinEng   = 0.635405 Lx       = 24.701601 
Ly       = 24.701601 Lz       = 24.701601 Density  = 1.016214 
Volume   = 15072.153275 
---------------- Step   160000 ----- CPU =     91.8905 (sec) ----------------
Time     = 800000.000000 Temp     = 208.689692 Press    = 662.024737 
PotEng   = -10.554412 KinEng   = 0.620849 Lx       = 24.675841 
Ly       = 24.675841 Lz       = 24.675841 Density  = 1.019400 
Volume   = 15025.047841 
---------------- Step   170000 ----- CPU =     97.7066 (sec) ----------------
Time     = 850000.000000 Temp     = 196.235221 Press    = 1192.705295 
PotEng   = -10.697339 KinEng   = 0.583797 Lx       = 24.632301 
Ly       = 24.632301 Lz       = 24.632301 Density  = 1.024815 
Volume   = 14945.655426 
---------------- Step   180000 ----- CPU =    103.6792 (sec) ----------------
Time     = 900000.000000 Temp     = 213.828358 Press    = 852.485031 
PotEng   = -10.583761 KinEng   = 0.636137 Lx       = 24.693144 
Ly       = 24.693144 Lz       = 24.693144 Density  = 1.017259 
Volume   = 15056.677564 
---------------- Step   190000 ----- CPU =    109.5667 (sec) ----------------
Time     = 950000.000000 Temp     = 208.513704 Press    = 1196.338935 
PotEng   = -10.649594 KinEng   = 0.620326 Lx       = 24.653001 
Ly       = 24.653001 Lz       = 24.653001 Density  = 1.022236 
Volume   = 14983.366073 
---------------- Step   200000 ----- CPU =    115.4892 (sec) ----------------
Time     = 1000000.000000 Temp     = 201.066199 Press    = 836.574171 
PotEng   = -10.590279 KinEng   = 0.598170 Lx       = 24.683622 
Ly       = 24.683622 Lz       = 24.683622 Density  = 1.018436 
Volume   = 15039.267511 
---------------- Step   210000 ----- CPU =    121.2297 (sec) ----------------
Time     = 1050000.000000 Temp     = 201.304641 Press    = 868.680525 
PotEng   = -10.605919 KinEng   = 0.598879 Lx       = 24.653448 
Ly       = 24.653448 Lz       = 24.653448 Density  = 1.022180 
Volume   = 14984.180785 
---------------- Step   220000 ----- CPU =    127.1059 (sec) ----------------
Time     = 1100000.000000 Temp     = 199.061922 Press    = 562.433324 
PotEng   = -10.561202 KinEng   = 0.592207 Lx       = 24.663603 
Ly       = 24.663603 Lz       = 24.663603 Density  = 1.020918 
Volume   = 15002.704498 
---------------- Step   230000 ----- CPU =    133.0648 (sec) ----------------
Time     = 1150000.000000 Temp     = 211.709533 Press    = 1024.537907 
PotEng   = -10.647186 KinEng   = 0.629833 Lx       = 24.679676 
Ly       = 24.679676 Lz       = 24.679676 Density  = 1.018925 
Volume   = 15032.054951 
---------------- Step   240000 ----- CPU =    139.0415 (sec) ----------------
Time     = 1200000.000000 Temp     = 207.226559 Press    = 710.350448 
PotEng   = -10.669532 KinEng   = 0.616497 Lx       = 24.728415 
Ly       = 24.728415 Lz       = 24.728415 Density  = 1.012912 
Volume   = 15121.290276 
---------------- Step   250000 ----- CPU =    144.9202 (sec) ----------------
Time     = 1250000.000000 Temp     = 205.553920 Press    = 71.952815 
PotEng   = -10.659567 KinEng   = 0.611520 Lx       = 24.805905 
Ly       = 24.805905 Lz       = 24.805905 Density  = 1.003449 
Volume   = 15263.890688 
---------------- Step   260000 ----- CPU =    150.9226 (sec) ----------------
Time     = 1300000.000000 Temp     = 209.363886 Press    = 1820.744529 
PotEng   = -10.646726 KinEng   = 0.622855 Lx       = 24.645026 
Ly       = 24.645026 Lz       = 24.645026 Density  = 1.023229 
Volume   = 14968.829642 
---------------- Step   270000 ----- CPU =    156.8952 (sec) ----------------
Time     = 1350000.000000 Temp     = 206.567068 Press    = 1241.486646 
PotEng   = -10.649026 KinEng   = 0.614535 Lx       = 24.674167 
Ly       = 24.674167 Lz       = 24.674167 Density  = 1.019607 
Volume   = 15021.991655 
---------------- Step   280000 ----- CPU =    162.6390 (sec) ----------------
Time     = 1400000.000000 Temp     = 216.581447 Press    = 706.730085 
PotEng   = -10.685004 KinEng   = 0.644327 Lx       = 24.695555 
Ly       = 24.695555 Lz       = 24.695555 Density  = 1.016961 
Volume   = 15061.089244 
---------------- Step   290000 ----- CPU =    168.6200 (sec) ----------------
Time     = 1450000.000000 Temp     = 213.226658 Press    = 1212.244149 
PotEng   = -10.632449 KinEng   = 0.634347 Lx       = 24.749625 
Ly       = 24.749625 Lz       = 24.749625 Density  = 1.010310 
Volume   = 15160.233300 
---------------- Step   300000 ----- CPU =    174.6048 (sec) ----------------
Time     = 1500000.000000 Temp     = 201.674201 Press    = 1129.568356 
PotEng   = -10.624092 KinEng   = 0.599978 Lx       = 24.631706 
Ly       = 24.631706 Lz       = 24.631706 Density  = 1.024890 
Volume   = 14944.571566 
---------------- Step   310000 ----- CPU =    180.3937 (sec) ----------------
Time     = 1550000.000000 Temp     = 213.022528 Press    = 1185.436564 
PotEng   = -10.752225 KinEng   = 0.633739 Lx       = 24.734557 
Ly       = 24.734557 Lz       = 24.734557 Density  = 1.012158 
Volume   = 15132.559879 
---------------- Step   320000 ----- CPU =    186.2315 (sec) ----------------
Time     = 1600000.000000 Temp     = 205.858496 Press    = 1147.232527 
PotEng   = -10.666426 KinEng   = 0.612427 Lx       = 24.657572 
Ly       = 24.657572 Lz       = 24.657572 Density  = 1.021667 
Volume   = 14991.702087 
---------------- Step   330000 ----- CPU =    192.2217 (sec) ----------------
Time     = 1650000.000000 Temp     = 204.826580 Press    = 252.706151 
PotEng   = -10.657453 KinEng   = 0.609357 Lx       = 24.734697 
Ly       = 24.734697 Lz       = 24.734697 Density  = 1.012140 
Volume   = 15132.818042 
---------------- Step   340000 ----- CPU =    198.1891 (sec) ----------------
Time     = 1700000.000000 Temp     = 226.317267 Press    = 907.952427 
PotEng   = -10.683671 KinEng   = 0.673291 Lx       = 24.673596 
Ly       = 24.673596 Lz       = 24.673596 Density  = 1.019678 
Volume   = 15020.947854 
---------------- Step   350000 ----- CPU =    204.1307 (sec) ----------------
Time     = 1750000.000000 Temp     = 209.616694 Press    = 522.447642 
PotEng   = -10.635384 KinEng   = 0.623607 Lx       = 24.641112 
Ly       = 24.641112 Lz       = 24.641112 Density  = 1.023716 
Volume   = 14961.698473 
---------------- Step   360000 ----- CPU =    210.0372 (sec) ----------------
Time     = 1800000.000000 Temp     = 210.731602 Press    = 1675.354134 
PotEng   = -10.658235 KinEng   = 0.626924 Lx       = 24.731753 
Ly       = 24.731753 Lz       = 24.731753 Density  = 1.012502 
Volume   = 15127.414864 
---------------- Step   370000 ----- CPU =    216.0105 (sec) ----------------
Time     = 1850000.000000 Temp     = 207.602791 Press    = 1200.410555 
PotEng   = -10.655821 KinEng   = 0.617616 Lx       = 24.666481 
Ly       = 24.666481 Lz       = 24.666481 Density  = 1.020561 
Volume   = 15007.958054 
---------------- Step   380000 ----- CPU =    221.8192 (sec) ----------------
Time     = 1900000.000000 Temp     = 200.789464 Press    = 938.637496 
PotEng   = -10.659829 KinEng   = 0.597346 Lx       = 24.751575 
Ly       = 24.751575 Lz       = 24.751575 Density  = 1.010071 
Volume   = 15163.815972 
---------------- Step   390000 ----- CPU =    227.5988 (sec) ----------------
Time     = 1950000.000000 Temp     = 210.142651 Press    = 335.832910 
PotEng   = -10.660949 KinEng   = 0.625172 Lx       = 24.729457 
Ly       = 24.729457 Lz       = 24.729457 Density  = 1.012784 
Volume   = 15123.200964 
---------------- Step   400000 ----- CPU =    233.3589 (sec) ----------------
Time     = 2000000.000000 Temp     = 200.017579 Press    = 970.221175 
PotEng   = -10.691043 KinEng   = 0.595050 Lx       = 24.735102 
Ly       = 24.735102 Lz       = 24.735102 Density  = 1.012091 
Volume   = 15133.559704 
---------------- Step   410000 ----- CPU =    239.3279 (sec) ----------------
Time     = 2050000.000000 Temp     = 203.855178 Press    = 395.932260 
PotEng   = -10.683898 KinEng   = 0.606467 Lx       = 24.757745 
Ly       = 24.757745 Lz       = 24.757745 Density  = 1.009316 
Volume   = 15175.158567 
---------------- Step   420000 ----- CPU =    245.2223 (sec) ----------------
Time     = 2100000.000000 Temp     = 208.943942 Press    = 1307.364592 
PotEng   = -10.686426 KinEng   = 0.621606 Lx       = 24.665911 
Ly       = 24.665911 Lz       = 24.665911 Density  = 1.020632 
Volume   = 15006.916172 
---------------- Step   430000 ----- CPU =    251.2283 (sec) ----------------
Time     = 2150000.000000 Temp     = 219.767502 Press    = 1444.117897 
PotEng   = -10.529099 KinEng   = 0.653806 Lx       = 24.657072 
Ly       = 24.657072 Lz       = 24.657072 Density  = 1.021730 
Volume   = 14990.788824 
---------------- Step   440000 ----- CPU =    257.2512 (sec) ----------------
Time     = 2200000.000000 Temp     = 214.600984 Press    = 1805.677850 
PotEng   = -10.603896 KinEng   = 0.638435 Lx       = 24.623250 
Ly       = 24.623250 Lz       = 24.623250 Density  = 1.025946 
Volume   = 14929.185627 
---------------- Step   450000 ----- CPU =    263.2432 (sec) ----------------
Time     = 2250000.000000 Temp     = 212.636446 Press    = 1036.551556 
PotEng   = -10.624151 KinEng   = 0.632591 Lx       = 24.655669 
Ly       = 24.655669 Lz       = 24.655669 Density  = 1.021904 
Volume   = 14988.231525 
---------------- Step   460000 ----- CPU =    269.1841 (sec) ----------------
Time     = 2300000.000000 Temp     = 211.662095 Press    = 1677.805853 
PotEng   = -10.670695 KinEng   = 0.629692 Lx       = 24.650977 
Ly       = 24.650977 Lz       = 24.650977 Density  = 1.022488 
Volume   = 14979.674769 
---------------- Step   470000 ----- CPU =    275.2075 (sec) ----------------
Time     = 2350000.000000 Temp     = 216.490000 Press    = 345.517839 
PotEng   = -10.629647 KinEng   = 0.644055 Lx       = 24.694599 
Ly       = 24.694599 Lz       = 24.694599 Density  = 1.017079 
Volume   = 15059.339905 
---------------- Step   480000 ----- CPU =    281.1221 (sec) ----------------
Time     = 2400000.000000 Temp     = 207.654660 Press    = 594.985194 
PotEng   = -10.592735 KinEng   = 0.617770 Lx       = 24.672778 
Ly       = 24.672778 Lz       = 24.672778 Density  = 1.019780 
Volume   = 15019.454909 
---------------- Step   490000 ----- CPU =    287.0242 (sec) ----------------
Time     = 2450000.000000 Temp     = 201.912835 Press    = 781.546904 
PotEng   = -10.685930 KinEng   = 0.600688 Lx       = 24.780064 
Ly       = 24.780064 Lz       = 24.780064 Density  = 1.006591 
Volume   = 15216.236876 
---------------- Step   500000 ----- CPU =    292.8787 (sec) ----------------
Time     = 2500000.000000 Temp     = 205.683046 Press    = 709.562040 
PotEng   = -10.672065 KinEng   = 0.611905 Lx       = 24.826993 
Ly       = 24.826993 Lz       = 24.826993 Density  = 1.000894 
Volume   = 15302.851040 
---------------- Step   510000 ----- CPU =    298.7632 (sec) ----------------
Time     = 2550000.000000 Temp     = 204.539748 Press    = 1428.711827 
PotEng   = -10.632664 KinEng   = 0.608503 Lx       = 24.679217 
Ly       = 24.679217 Lz       = 24.679217 Density  = 1.018982 
Volume   = 15031.217144 
---------------- Step   520000 ----- CPU =    304.6021 (sec) ----------------
Time     = 2600000.000000 Temp     = 199.443018 Press    = 1877.533645 
PotEng   = -10.726453 KinEng   = 0.593341 Lx       = 24.642475 
Ly       = 24.642475 Lz       = 24.642475 Density  = 1.023546 
Volume   = 14964.181051 
---------------- Step   530000 ----- CPU =    310.5478 (sec) ----------------
Time     = 2650000.000000 Temp     = 203.421677 Press    = 938.485232 
PotEng   = -10.543236 KinEng   = 0.605177 Lx       = 24.670053 
Ly       = 24.670053 Lz       = 24.670053 Density  = 1.020118 
Volume   = 15014.479245 
---------------- Step   540000 ----- CPU =    316.5339 (sec) ----------------
Time     = 2700000.000000 Temp     = 213.863122 Press    = 1769.997371 
PotEng   = -10.709244 KinEng   = 0.636240 Lx       = 24.739477 
Ly       = 24.739477 Lz       = 24.739477 Density  = 1.011554 
Volume   = 15141.591240 
---------------- Step   550000 ----- CPU =    322.5483 (sec) ----------------
Time     = 2750000.000000 Temp     = 206.853180 Press    = 1402.735844 
PotEng   = -10.561237 KinEng   = 0.615386 Lx       = 24.602460 
Ly       = 24.602460 Lz       = 24.602460 Density  = 1.028549 
Volume   = 14891.403268 
---------------- Step   560000 ----- CPU =    328.5754 (sec) ----------------
Time     = 2800000.000000 Temp     = 210.855028 Press    = 393.490432 
PotEng   = -10.609862 KinEng   = 0.627291 Lx       = 24.658260 
Ly       = 24.658260 Lz       = 24.658260 Density  = 1.021582 
Volume   = 14992.957236 
---------------- Step   570000 ----- CPU =    334.5362 (sec) ----------------
Time     = 2850000.000000 Temp     = 209.995276 Press    = 1574.373476 
PotEng   = -10.615579 KinEng   = 0.624733 Lx       = 24.601514 
Ly       = 24.601514 Lz       = 24.601514 Density  = 1.028668 
Volume   = 14889.684197 
---------------- Step   580000 ----- CPU =    340.5358 (sec) ----------------
Time     = 2900000.000000 Temp     = 213.370256 Press    = 823.657735 
PotEng   = -10.734998 KinEng   = 0.634774 Lx       = 24.696679 
Ly       = 24.696679 Lz       = 24.696679 Density  = 1.016822 
Volume   = 15063.145120 
---------------- Step   590000 ----- CPU =    346.4915 (sec) ----------------
Time     = 2950000.000000 Temp     = 202.721261 Press    = 587.151679 
PotEng   = -10.630886 KinEng   = 0.603093 Lx       = 24.702385 
Ly       = 24.702385 Lz       = 24.702385 Density  = 1.016117 
Volume   = 15073.587801 
---------------- Step   600000 ----- CPU =    352.5592 (sec) ----------------
Time     = 3000000.000000 Temp     = 212.378612 Press    = 1333.078413 
PotEng   = -10.628648 KinEng   = 0.631824 Lx       = 24.613232 
Ly       = 24.613232 Lz       = 24.613232 Density  = 1.027199 
Volume   = 14910.970946 
---------------- Step   610000 ----- CPU =    358.5585 (sec) ----------------
Time     = 3050000.000000 Temp     = 208.676927 Press    = 1347.116682 
PotEng   = -10.580812 KinEng   = 0.620811 Lx       = 24.621790 
Ly       = 24.621790 Lz       = 24.621790 Density  = 1.026128 
Volume   = 14926.531217 
---------------- Step   620000 ----- CPU =    364.4507 (sec) ----------------
Time     = 3100000.000000 Temp     = 216.573948 Press    = 1813.833564 
PotEng   = -10.630914 KinEng   = 0.644305 Lx       = 24.583452 
Ly       = 24.583452 Lz       = 24.583452 Density  = 1.030937 
Volume   = 14856.913021 
---------------- Step   630000 ----- CPU =    370.4839 (sec) ----------------
Time     = 3150000.000000 Temp     = 218.112642 Press    = 1316.279164 
PotEng   = -10.604640 KinEng   = 0.648883 Lx       = 24.652555 
Ly       = 24.652555 Lz       = 24.652555 Density  = 1.022291 
Volume   = 14982.552288 
---------------- Step   640000 ----- CPU =    376.3585 (sec) ----------------
Time     = 3200000.000000 Temp     = 195.843357 Press    = 1107.796108 
PotEng   = -10.648698 KinEng   = 0.582632 Lx       = 24.659474 
Ly       = 24.659474 Lz       = 24.659474 Density  = 1.021431 
Volume   = 14995.170933 
---------------- Step   650000 ----- CPU =    382.1838 (sec) ----------------
Time     = 3250000.000000 Temp     = 212.338432 Press    = 1656.652764 
PotEng   = -10.703192 KinEng   = 0.631704 Lx       = 24.646143 
Ly       = 24.646143 Lz       = 24.646143 Density  = 1.023090 
Volume   = 14970.864578 
---------------- Step   660000 ----- CPU =    388.1449 (sec) ----------------
Time     = 3300000.000000 Temp     = 206.148422 Press    = 965.413476 
PotEng   = -10.618531 KinEng   = 0.613289 Lx       = 24.634343 
Ly       = 24.634343 Lz       = 24.634343 Density  = 1.024560 
Volume   = 14949.371793 
---------------- Step   670000 ----- CPU =    394.1687 (sec) ----------------
Time     = 3350000.000000 Temp     = 219.309965 Press    = 1068.064068 
PotEng   = -10.595604 KinEng   = 0.652445 Lx       = 24.629630 
Ly       = 24.629630 Lz       = 24.629630 Density  = 1.025149 
Volume   = 14940.793617 
---------------- Step   680000 ----- CPU =    400.1409 (sec) ----------------
Time     = 3400000.000000 Temp     = 207.246440 Press    = 2051.696642 
PotEng   = -10.670015 KinEng   = 0.616556 Lx       = 24.651910 
Ly       = 24.651910 Lz       = 24.651910 Density  = 1.022372 
Volume   = 14981.377236 
---------------- Step   690000 ----- CPU =    405.8850 (sec) ----------------
Time     = 3450000.000000 Temp     = 218.583903 Press    = 1726.382577 
PotEng   = -10.769153 KinEng   = 0.650285 Lx       = 24.714650 
Ly       = 24.714650 Lz       = 24.714650 Density  = 1.014605 
Volume   = 15096.052968 
---------------- Step   700000 ----- CPU =    411.8936 (sec) ----------------
Time     = 3500000.000000 Temp     = 215.180583 Press    = 1246.156132 
PotEng   = -10.614357 KinEng   = 0.640160 Lx       = 24.682231 
Ly       = 24.682231 Lz       = 24.682231 Density  = 1.018609 
Volume   = 15036.723747 
---------------- Step   710000 ----- CPU =    417.8605 (sec) ----------------
Time     = 3550000.000000 Temp     = 219.480857 Press    = 1346.018233 
PotEng   = -10.687929 KinEng   = 0.652953 Lx       = 24.582633 
Ly       = 24.582633 Lz       = 24.582633 Density  = 1.031040 
Volume   = 14855.428106 
---------------- Step   720000 ----- CPU =    423.7468 (sec) ----------------
Time     = 3600000.000000 Temp     = 215.349655 Press    = 1621.029544 
PotEng   = -10.688889 KinEng   = 0.640663 Lx       = 24.584917 
Ly       = 24.584917 Lz       = 24.584917 Density  = 1.030752 
Volume   = 14859.570730 
---------------- Step   730000 ----- CPU =    429.7600 (sec) ----------------
Time     = 3650000.000000 Temp     = 209.003042 Press    = 892.271436 
PotEng   = -10.648953 KinEng   = 0.621782 Lx       = 24.737802 
Ly       = 24.737802 Lz       = 24.737802 Density  = 1.011759 
Volume   = 15138.517700 
---------------- Step   740000 ----- CPU =    435.7833 (sec) ----------------
Time     = 3700000.000000 Temp     = 211.179632 Press    = 860.318816 
PotEng   = -10.526197 KinEng   = 0.628257 Lx       = 24.634810 
Ly       = 24.634810 Lz       = 24.634810 Density  = 1.024502 
Volume   = 14950.222693 
---------------- Step   750000 ----- CPU =    441.7061 (sec) ----------------
Time     = 3750000.000000 Temp     = 218.813179 Press    = 1040.413603 
PotEng   = -10.637778 KinEng   = 0.650967 Lx       = 24.603354 
Ly       = 24.603354 Lz       = 24.603354 Density  = 1.028437 
Volume   = 14893.026758 
---------------- Step   760000 ----- CPU =    447.7233 (sec) ----------------
Time     = 3800000.000000 Temp     = 211.105583 Press    = 1625.537628 
PotEng   = -10.675127 KinEng   = 0.628037 Lx       = 24.684407 
Ly       = 24.684407 Lz       = 24.684407 Density  = 1.018339 
Volume   = 15040.700740 
---------------- Step   770000 ----- CPU =    453.7046 (sec) ----------------
Time     = 3850000.000000 Temp     = 208.230724 Press    = 991.994997 
PotEng   = -10.648117 KinEng   = 0.619484 Lx       = 24.701920 
Ly       = 24.701920 Lz       = 24.701920 Density  = 1.016175 
Volume   = 15072.736961 
---------------- Step   780000 ----- CPU =    459.6994 (sec) ----------------
Time     = 3900000.000000 Temp     = 211.477656 Press    = 1363.667852 
PotEng   = -10.594883 KinEng   = 0.629144 Lx       = 24.639047 
Ly       = 24.639047 Lz       = 24.639047 Density  = 1.023974 
Volume   = 14957.937670 
---------------- Step   790000 ----- CPU =    465.6572 (sec) ----------------
Time     = 3950000.000000 Temp     = 221.450157 Press    = 1695.630606 
PotEng   = -10.697043 KinEng   = 0.658812 Lx       = 24.650838 
Ly       = 24.650838 Lz       = 24.650838 Density  = 1.022505 
Volume   = 14979.422711 
---------------- Step   800000 ----- CPU =    471.5346 (sec) ----------------
Time     = 4000000.000000 Temp     = 211.424582 Press    = 998.550827 
PotEng   = -10.754685 KinEng   = 0.628986 Lx       = 24.774494 
Ly       = 24.774494 Lz       = 24.774494 Density  = 1.007271 
Volume   = 15205.978503 
---------------- Step   810000 ----- CPU =    477.3024 (sec) ----------------
Time     = 4050000.000000 Temp     = 210.989068 Press    = 1608.524880 
PotEng   = -10.681554 KinEng   = 0.627690 Lx       = 24.720905 
Ly       = 24.720905 Lz       = 24.720905 Density  = 1.013835 
Volume   = 15107.517188 
---------------- Step   820000 ----- CPU =    483.1962 (sec) ----------------
Time     = 4100000.000000 Temp     = 222.077416 Press    = 417.752991 
PotEng   = -10.622984 KinEng   = 0.660678 Lx       = 24.685919 
Ly       = 24.685919 Lz       = 24.685919 Density  = 1.018152 
Volume   = 15043.466451 
---------------- Step   830000 ----- CPU =    489.1233 (sec) ----------------
Time     = 4150000.000000 Temp     = 209.661344 Press    = -0.617667 
PotEng   = -10.658698 KinEng   = 0.623740 Lx       = 24.753110 
Ly       = 24.753110 Lz       = 24.753110 Density  = 1.009883 
Volume   = 15166.636962 
---------------- Step   840000 ----- CPU =    495.2074 (sec) ----------------
Time     = 4200000.000000 Temp     = 218.854466 Press    = 694.923528 
PotEng   = -10.582798 KinEng   = 0.651089 Lx       = 24.664458 
Ly       = 24.664458 Lz       = 24.664458 Density  = 1.020812 
Volume   = 15004.264819 
---------------- Step   850000 ----- CPU =    501.2190 (sec) ----------------
Time     = 4250000.000000 Temp     = 206.938518 Press    = 1117.603040 
PotEng   = -10.670930 KinEng   = 0.615640 Lx       = 24.694596 
Ly       = 24.694596 Lz       = 24.694596 Density  = 1.017079 
Volume   = 15059.334470 
---------------- Step   860000 ----- CPU =    507.2298 (sec) ----------------
Time     = 4300000.000000 Temp     = 211.606840 Press    = 1428.201871 
PotEng   = -10.720202 KinEng   = 0.629528 Lx       = 24.753243 
Ly       = 24.753243 Lz       = 24.753243 Density  = 1.009867 
Volume   = 15166.882718 
---------------- Step   870000 ----- CPU =    513.0052 (sec) ----------------
Time     = 4350000.000000 Temp     = 197.749473 Press    = 800.006491 
PotEng   = -10.669778 KinEng   = 0.588302 Lx       = 24.663094 
Ly       = 24.663094 Lz       = 24.663094 Density  = 1.020981 
Volume   = 15001.775312 
---------------- Step   880000 ----- CPU =    518.9678 (sec) ----------------
Time     = 4400000.000000 Temp     = 202.709529 Press    = 330.566875 
PotEng   = -10.641476 KinEng   = 0.603058 Lx       = 24.681730 
Ly       = 24.681730 Lz       = 24.681730 Density  = 1.018671 
Volume   = 15035.808240 
---------------- Step   890000 ----- CPU =    524.9727 (sec) ----------------
Time     = 4450000.000000 Temp     = 208.619230 Press    = 1145.210716 
PotEng   = -10.619004 KinEng   = 0.620640 Lx       = 24.631521 
Ly       = 24.631521 Lz       = 24.631521 Density  = 1.024913 
Volume   = 14944.235230 
---------------- Step   900000 ----- CPU =    530.8877 (sec) ----------------
Time     = 4500000.000000 Temp     = 201.753663 Press    = 700.808595 
PotEng   = -10.672932 KinEng   = 0.600215 Lx       = 24.611082 
Ly       = 24.611082 Lz       = 24.611082 Density  = 1.027468 
Volume   = 14907.064826 
---------------- Step   910000 ----- CPU =    536.6974 (sec) ----------------
Time     = 4550000.000000 Temp     = 214.770592 Press    = 1386.623954 
PotEng   = -10.694548 KinEng   = 0.638940 Lx       = 24.675890 
Ly       = 24.675890 Lz       = 24.675890 Density  = 1.019394 
Volume   = 15025.138275 
---------------- Step   920000 ----- CPU =    542.6211 (sec) ----------------
Time     = 4600000.000000 Temp     = 197.135396 Press    = 740.080679 
PotEng   = -10.677538 KinEng   = 0.586475 Lx       = 24.769249 
Ly       = 24.769249 Lz       = 24.769249 Density  = 1.007911 
Volume   = 15196.322902 
---------------- Step   930000 ----- CPU =    548.5330 (sec) ----------------
Time     = 4650000.000000 Temp     = 216.308778 Press    = -123.320074 
PotEng   = -10.597474 KinEng   = 0.643516 Lx       = 24.791979 
Ly       = 24.791979 Lz       = 24.791979 Density  = 1.005141 
Volume   = 15238.196487 
---------------- Step   940000 ----- CPU =    554.4286 (sec) ----------------
Time     = 4700000.000000 Temp     = 211.530306 Press    = 634.180399 
PotEng   = -10.630238 KinEng   = 0.629300 Lx       = 24.667682 
Ly       = 24.667682 Lz       = 24.667682 Density  = 1.020412 
Volume   = 15010.149703 
---------------- Step   950000 ----- CPU =    560.3921 (sec) ----------------
Time     = 4750000.000000 Temp     = 201.542094 Press    = 304.994861 
PotEng   = -10.605935 KinEng   = 0.599585 Lx       = 24.692917 
Ly       = 24.692917 Lz       = 24.692917 Density  = 1.017287 
Volume   = 15056.263218 
---------------- Step   960000 ----- CPU =    566.2746 (sec) ----------------
Time     = 4800000.000000 Temp     = 210.257566 Press    = 749.237012 
PotEng   = -10.622357 KinEng   = 0.625514 Lx       = 24.722587 
Ly       = 24.722587 Lz       = 24.722587 Density  = 1.013628 
Volume   = 15110.600463 
---------------- Step   970000 ----- CPU =    572.2469 (sec) ----------------
Time     = 4850000.000000 Temp     = 216.819582 Press    = 87.754340 
PotEng   = -10.634226 KinEng   = 0.645036 Lx       = 24.708905 
Ly       = 24.708905 Lz       = 24.708905 Density  = 1.015313 
Volume   = 15085.527380 
---------------- Step   980000 ----- CPU =    578.1030 (sec) ----------------
Time     = 4900000.000000 Temp     = 204.300347 Press    = 1318.893003 
PotEng   = -10.608506 KinEng   = 0.607791 Lx       = 24.675271 
Ly       = 24.675271 Lz       = 24.675271 Density  = 1.019471 
Volume   = 15024.006810 
---------------- Step   990000 ----- CPU =    583.9699 (sec) ----------------
Time     = 4950000.000000 Temp     = 216.000062 Press    = 1331.805262 
PotEng   = -10.555979 KinEng   = 0.642598 Lx       = 24.588927 
Ly       = 24.588927 Lz       = 24.588927 Density  = 1.030248 
Volume   = 14866.842728 
---------------- Step  1000000 ----- CPU =    589.9228 (sec) ----------------
Time     = 5000000.000000 Temp     = 215.934725 Press    = 1517.504375 
PotEng   = -10.653305 KinEng   = 0.642403 Lx       = 24.605664 
Ly       = 24.605664 Lz       = 24.605664 Density  = 1.028147 
Volume   = 14897.222068 
---------------- Step  1010000 ----- CPU =    596.0416 (sec) ----------------
Time     = 5050000.000000 Temp     = 211.603785 Press    = 1259.721199 
PotEng   = -10.653645 KinEng   = 0.629519 Lx       = 24.639426 
Ly       = 24.639426 Lz       = 24.639426 Density  = 1.023927 
Volume   = 14958.627066 
---------------- Step  1020000 ----- CPU =    601.9430 (sec) ----------------
Time     = 5100000.000000 Temp     = 195.195211 Press    = 627.651974 
PotEng   = -10.666756 KinEng   = 0.580703 Lx       = 24.829621 
Ly       = 24.829621 Lz       = 24.829621 Density  = 1.000576 
Volume   = 15307.712169 
---------------- Step  1030000 ----- CPU =    607.7394 (sec) ----------------
Time     = 5150000.000000 Temp     = 216.921817 Press    = 884.488714 
PotEng   = -10.654786 KinEng   = 0.645340 Lx       = 24.788061 
Ly       = 24.788061 Lz       = 24.788061 Density  = 1.005618 
Volume   = 15230.973432 
---------------- Step  1040000 ----- CPU =    613.4445 (sec) ----------------
Time     = 5200000.000000 Temp     = 214.474807 Press    = 971.904974 
PotEng   = -10.632663 KinEng   = 0.638060 Lx       = 24.676396 
Ly       = 24.676396 Lz       = 24.676396 Density  = 1.019331 
Volume   = 15026.062692 
---------------- Step  1050000 ----- CPU =    619.2766 (sec) ----------------
Time     = 5250000.000000 Temp     = 207.263001 Press    = 675.539666 
PotEng   = -10.626100 KinEng   = 0.616605 Lx       = 24.680761 
Ly       = 24.680761 Lz       = 24.680761 Density  = 1.018791 
Volume   = 15034.037215 
---------------- Step  1060000 ----- CPU =    625.2693 (sec) ----------------
Time     = 5300000.000000 Temp     = 195.103283 Press    = 643.393427 
PotEng   = -10.557343 KinEng   = 0.580430 Lx       = 24.589818 
Ly       = 24.589818 Lz       = 24.589818 Density  = 1.030136 
Volume   = 14868.458879 
---------------- Step  1070000 ----- CPU =    631.1994 (sec) ----------------
Time     = 5350000.000000 Temp     = 219.845106 Press    = 1075.565368 
PotEng   = -10.693939 KinEng   = 0.654037 Lx       = 24.631858 
Ly       = 24.631858 Lz       = 24.631858 Density  = 1.024870 
Volume   = 14944.849210 
---------------- Step  1080000 ----- CPU =    637.1125 (sec) ----------------
Time     = 5400000.000000 Temp     = 197.051748 Press    = 1885.549731 
PotEng   = -10.660162 KinEng   = 0.586227 Lx       = 24.607019 
Ly       = 24.607019 Lz       = 24.607019 Density  = 1.027977 
Volume   = 14899.682146 
---------------- Step  1090000 ----- CPU =    642.9774 (sec) ----------------
Time     = 5450000.000000 Temp     = 200.979733 Press    = 1422.863848 
PotEng   = -10.673159 KinEng   = 0.597912 Lx       = 24.571211 
Ly       = 24.571211 Lz       = 24.571211 Density  = 1.032478 
Volume   = 14834.731563 
---------------- Step  1100000 ----- CPU =    649.1017 (sec) ----------------
Time     = 5500000.000000 Temp     = 212.443967 Press    = 698.473519 
PotEng   = -10.579729 KinEng   = 0.632018 Lx       = 24.735641 
Ly       = 24.735641 Lz       = 24.735641 Density  = 1.012024 
Volume   = 15134.550506 
---------------- Step  1110000 ----- CPU =    654.9411 (sec) ----------------
Time     = 5550000.000000 Temp     = 205.446504 Press    = 1563.835266 
PotEng   = -10.638014 KinEng   = 0.611201 Lx       = 24.627241 
Ly       = 24.627241 Lz       = 24.627241 Density  = 1.025447 
Volume   = 14936.446310 
---------------- Step  1120000 ----- CPU =    660.7156 (sec) ----------------
Time     = 5600000.000000 Temp     = 207.718053 Press    = 759.947237 
PotEng   = -10.663079 KinEng   = 0.617959 Lx       = 24.683921 
Ly       = 24.683921 Lz       = 24.683921 Density  = 1.018399 
Volume   = 15039.812402 
---------------- Step  1130000 ----- CPU =    666.4815 (sec) ----------------
Time     = 5650000.000000 Temp     = 209.905804 Press    = 1226.073028 
PotEng   = -10.690249 KinEng   = 0.624467 Lx       = 24.648827 
Ly       = 24.648827 Lz       = 24.648827 Density  = 1.022755 
Volume   = 14975.757167 
---------------- Step  1140000 ----- CPU =    672.2777 (sec) ----------------
Time     = 5700000.000000 Temp     = 213.793486 Press    = 729.397058 
PotEng   = -10.646175 KinEng   = 0.636033 Lx       = 24.669631 
Ly       = 24.669631 Lz       = 24.669631 Density  = 1.020170 
Volume   = 15013.708464 
---------------- Step  1150000 ----- CPU =    678.0467 (sec) ----------------
Time     = 5750000.000000 Temp     = 205.348145 Press    = 1151.657649 
PotEng   = -10.713870 KinEng   = 0.610908 Lx       = 24.657480 
Ly       = 24.657480 Lz       = 24.657480 Density  = 1.021679 
Volume   = 14991.534238 
---------------- Step  1160000 ----- CPU =    683.8168 (sec) ----------------
Time     = 5800000.000000 Temp     = 216.098851 Press    = 704.567131 
PotEng   = -10.643680 KinEng   = 0.642892 Lx       = 24.727723 
Ly       = 24.727723 Lz       = 24.727723 Density  = 1.012997 
Volume   = 15120.021451 
---------------- Step  1170000 ----- CPU =    689.7771 (sec) ----------------
Time     = 5850000.000000 Temp     = 215.136286 Press    = 1167.704677 
PotEng   = -10.612256 KinEng   = 0.640028 Lx       = 24.648194 
Ly       = 24.648194 Lz       = 24.648194 Density  = 1.022834 
Volume   = 14974.602711 
---------------- Step  1180000 ----- CPU =    695.7226 (sec) ----------------
Time     = 5900000.000000 Temp     = 198.792337 Press    = 910.414580 
PotEng   = -10.590011 KinEng   = 0.591405 Lx       = 24.662159 
Ly       = 24.662159 Lz       = 24.662159 Density  = 1.021098 
Volume   = 15000.069184 
---------------- Step  1190000 ----- CPU =    701.5772 (sec) ----------------
Time     = 5950000.000000 Temp     = 200.388794 Press    = 1146.871470 
PotEng   = -10.679270 KinEng   = 0.596154 Lx       = 24.719334 
Ly       = 24.719334 Lz       = 24.719334 Density  = 1.014029 
Volume   = 15104.637026 
---------------- Step  1200000 ----- CPU =    707.5217 (sec) ----------------
Time     = 6000000.000000 Temp     = 214.755607 Press    = 996.642828 
PotEng   = -10.663618 KinEng   = 0.638895 Lx       = 24.730167 
Ly       = 24.730167 Lz       = 24.730167 Density  = 1.012697 
Volume   = 15124.504718 
---------------- Step  1210000 ----- CPU =    713.3503 (sec) ----------------
Time     = 6050000.000000 Temp     = 200.591901 Press    = 1258.979011 
PotEng   = -10.727927 KinEng   = 0.596759 Lx       = 24.801076 
Ly       = 24.801076 Lz       = 24.801076 Density  = 1.004035 
Volume   = 15254.977974 
---------------- Step  1220000 ----- CPU =    719.3492 (sec) ----------------
Time     = 6100000.000000 Temp     = 203.876553 Press    = 1440.378791 
PotEng   = -10.620102 KinEng   = 0.606530 Lx       = 24.668071 
Ly       = 24.668071 Lz       = 24.668071 Density  = 1.020364 
Volume   = 15010.858920 
---------------- Step  1230000 ----- CPU =    725.2326 (sec) ----------------
Time     = 6150000.000000 Temp     = 214.231451 Press    = 1179.057123 
PotEng   = -10.592852 KinEng   = 0.637336 Lx       = 24.674168 
Ly       = 24.674168 Lz       = 24.674168 Density  = 1.019607 
Volume   = 15021.992930 
---------------- Step  1240000 ----- CPU =    731.2913 (sec) ----------------
Time     = 6200000.000000 Temp     = 212.141748 Press    = 1392.067841 
PotEng   = -10.618134 KinEng   = 0.631119 Lx       = 24.614630 
Ly       = 24.614630 Lz       = 24.614630 Density  = 1.027024 
Volume   = 14913.511619 
---------------- Step  1250000 ----- CPU =    737.3269 (sec) ----------------
Time     = 6250000.000000 Temp     = 208.820459 Press    = 355.786699 
PotEng   = -10.652347 KinEng   = 0.621238 Lx       = 24.692860 
Ly       = 24.692860 Lz       = 24.692860 Density  = 1.017294 
Volume   = 15056.158809 
---------------- Step  1260000 ----- CPU =    743.4045 (sec) ----------------
Time     = 6300000.000000 Temp     = 219.726333 Press    = 942.584073 
PotEng   = -10.638105 KinEng   = 0.653683 Lx       = 24.711836 
Ly       = 24.711836 Lz       = 24.711836 Density  = 1.014952 
Volume   = 15090.897348 
---------------- Step  1270000 ----- CPU =    749.3988 (sec) ----------------
Time     = 6350000.000000 Temp     = 196.151280 Press    = 1171.256530 
PotEng   = -10.566768 KinEng   = 0.583548 Lx       = 24.684797 
Ly       = 24.684797 Lz       = 24.684797 Density  = 1.018291 
Volume   = 15041.414956 
---------------- Step  1280000 ----- CPU =    755.2186 (sec) ----------------
Time     = 6400000.000000 Temp     = 195.837321 Press    = 1856.346042 
PotEng   = -10.693921 KinEng   = 0.582614 Lx       = 24.669718 
Ly       = 24.669718 Lz       = 24.669718 Density  = 1.020159 
Volume   = 15013.866748 
---------------- Step  1290000 ----- CPU =    761.0072 (sec) ----------------
Time     = 6450000.000000 Temp     = 205.798689 Press    = 968.140835 
PotEng   = -10.623800 KinEng   = 0.612249 Lx       = 24.666648 
Ly       = 24.666648 Lz       = 24.666648 Density  = 1.020540 
Volume   = 15008.261786 
---------------- Step  1300000 ----- CPU =    766.7639 (sec) ----------------
Time     = 6500000.000000 Temp     = 203.121038 Press    = 938.457531 
PotEng   = -10.610371 KinEng   = 0.604283 Lx       = 24.630709 
Ly       = 24.630709 Lz       = 24.630709 Density  = 1.025014 
Volume   = 14942.756467 
---------------- Step  1310000 ----- CPU =    772.6237 (sec) ----------------
Time     = 6550000.000000 Temp     = 221.295944 Press    = 2788.688025 
PotEng   = -10.675165 KinEng   = 0.658353 Lx       = 24.631868 
Ly       = 24.631868 Lz       = 24.631868 Density  = 1.024869 
Volume   = 14944.866069 
---------------- Step  1320000 ----- CPU =    778.4502 (sec) ----------------
Time     = 6600000.000000 Temp     = 209.931571 Press    = 1202.046141 
PotEng   = -10.646977 KinEng   = 0.624544 Lx       = 24.640314 
Ly       = 24.640314 Lz       = 24.640314 Density  = 1.023816 
Volume   = 14960.245771 
---------------- Step  1330000 ----- CPU =    784.5351 (sec) ----------------
Time     = 6650000.000000 Temp     = 208.945210 Press    = 828.014836 
PotEng   = -10.608050 KinEng   = 0.621610 Lx       = 24.751626 
Ly       = 24.751626 Lz       = 24.751626 Density  = 1.010065 
Volume   = 15163.909253 
---------------- Step  1340000 ----- CPU =    790.4834 (sec) ----------------
Time     = 6700000.000000 Temp     = 211.683810 Press    = 1014.687197 
PotEng   = -10.637812 KinEng   = 0.629757 Lx       = 24.670035 
Ly       = 24.670035 Lz       = 24.670035 Density  = 1.020120 
Volume   = 15014.444942 
---------------- Step  1350000 ----- CPU =    796.3807 (sec) ----------------
Time     = 6750000.000000 Temp     = 209.760443 Press    = 663.689807 
PotEng   = -10.673776 KinEng   = 0.624035 Lx       = 24.655331 
Ly       = 24.655331 Lz       = 24.655331 Density  = 1.021946 
Volume   = 14987.613588 
---------------- Step  1360000 ----- CPU =    802.2653 (sec) ----------------
Time     = 6800000.000000 Temp     = 201.122441 Press    = 1043.223472 
PotEng   = -10.666938 KinEng   = 0.598337 Lx       = 24.717483 
Ly       = 24.717483 Lz       = 24.717483 Density  = 1.014257 
Volume   = 15101.243753 
---------------- Step  1370000 ----- CPU =    808.2073 (sec) ----------------
Time     = 6850000.000000 Temp     = 213.343428 Press    = 1055.349408 
PotEng   = -10.672000 KinEng   = 0.634694 Lx       = 24.663383 
Ly       = 24.663383 Lz       = 24.663383 Density  = 1.020945 
Volume   = 15002.304213 
---------------- Step  1380000 ----- CPU =    814.1512 (sec) ----------------
Time     = 6900000.000000 Temp     = 205.839100 Press    = 1392.659630 
PotEng   = -10.655930 KinEng   = 0.612369 Lx       = 24.644498 
Ly       = 24.644498 Lz       = 24.644498 Density  = 1.023294 
Volume   = 14967.867395 
---------------- Step  1390000 ----- CPU =    820.0648 (sec) ----------------
Time     = 6950000.000000 Temp     = 208.525265 Press    = 890.618690 
PotEng   = -10.605757 KinEng   = 0.620360 Lx       = 24.656592 
Ly       = 24.656592 Lz       = 24.656592 Density  = 1.021789 
Volume   = 14989.914989 
---------------- Step  1400000 ----- CPU =    826.0391 (sec) ----------------
Time     = 7000000.000000 Temp     = 211.062958 Press    = 841.491517 
PotEng   = -10.702610 KinEng   = 0.627910 Lx       = 24.758097 
Ly       = 24.758097 Lz       = 24.758097 Density  = 1.009273 
Volume   = 15175.805608 
---------------- Step  1410000 ----- CPU =    832.0542 (sec) ----------------
Time     = 7050000.000000 Temp     = 214.271850 Press    = 1022.085390 
PotEng   = -10.612008 KinEng   = 0.637456 Lx       = 24.615087 
Ly       = 24.615087 Lz       = 24.615087 Density  = 1.026967 
Volume   = 14914.343856 
---------------- Step  1420000 ----- CPU =    837.9826 (sec) ----------------
Time     = 7100000.000000 Temp     = 220.661818 Press    = 143.199980 
PotEng   = -10.646168 KinEng   = 0.656466 Lx       = 24.660269 
Ly       = 24.660269 Lz       = 24.660269 Density  = 1.021332 
Volume   = 14996.620992 
---------------- Step  1430000 ----- CPU =    843.8285 (sec) ----------------
Time     = 7150000.000000 Temp     = 209.501704 Press    = 1296.165996 
PotEng   = -10.695967 KinEng   = 0.623265 Lx       = 24.667257 
Ly       = 24.667257 Lz       = 24.667257 Density  = 1.020465 
Volume   = 15009.373540 
---------------- Step  1440000 ----- CPU =    849.6660 (sec) ----------------
Time     = 7200000.000000 Temp     = 212.746426 Press    = 67.646648 
PotEng   = -10.587147 KinEng   = 0.632918 Lx       = 24.716433 
Ly       = 24.716433 Lz       = 24.716433 Density  = 1.014386 
Volume   = 15099.320046 
---------------- Step  1450000 ----- CPU =    855.5200 (sec) ----------------
Time     = 7250000.000000 Temp     = 201.731621 Press    = 678.998455 
PotEng   = -10.657480 KinEng   = 0.600149 Lx       = 24.737509 
Ly       = 24.737509 Lz       = 24.737509 Density  = 1.011795 
Volume   = 15137.979543 
---------------- Step  1460000 ----- CPU =    861.5052 (sec) ----------------
Time     = 7300000.000000 Temp     = 223.712997 Press    = 1090.579960 
PotEng   = -10.602442 KinEng   = 0.665544 Lx       = 24.631330 
Ly       = 24.631330 Lz       = 24.631330 Density  = 1.024936 
Volume   = 14943.887964 
---------------- Step  1470000 ----- CPU =    867.6265 (sec) ----------------
Time     = 7350000.000000 Temp     = 222.101231 Press    = 992.968802 
PotEng   = -10.682198 KinEng   = 0.660749 Lx       = 24.667969 
Ly       = 24.667969 Lz       = 24.667969 Density  = 1.020376 
Volume   = 15010.673666 
---------------- Step  1480000 ----- CPU =    873.4956 (sec) ----------------
Time     = 7400000.000000 Temp     = 201.742709 Press    = 1031.779521 
PotEng   = -10.638039 KinEng   = 0.600182 Lx       = 24.735758 
Ly       = 24.735758 Lz       = 24.735758 Density  = 1.012010 
Volume   = 15134.765373 
---------------- Step  1490000 ----- CPU =    879.4618 (sec) ----------------
Time     = 7450000.000000 Temp     = 216.521575 Press    = 1109.946485 
PotEng   = -10.618162 KinEng   = 0.644149 Lx       = 24.662493 
Ly       = 24.662493 Lz       = 24.662493 Density  = 1.021056 
Volume   = 15000.679821 
---------------- Step  1500000 ----- CPU =    885.5816 (sec) ----------------
Time     = 7500000.000000 Temp     = 208.286764 Press    = 1001.954874 
PotEng   = -10.590257 KinEng   = 0.619651 Lx       = 24.648976 
Ly       = 24.648976 Lz       = 24.648976 Density  = 1.022737 
Volume   = 14976.027288 
---------------- Step  1510000 ----- CPU =    891.5519 (sec) ----------------
Time     = 7550000.000000 Temp     = 222.691212 Press    = 264.801510 
PotEng   = -10.663400 KinEng   = 0.662504 Lx       = 24.766201 
Ly       = 24.766201 Lz       = 24.766201 Density  = 1.008283 
Volume   = 15190.714269 
---------------- Step  1520000 ----- CPU =    897.4354 (sec) ----------------
Time     = 7600000.000000 Temp     = 197.380787 Press    = 1607.186243 
PotEng   = -10.700137 KinEng   = 0.587206 Lx       = 24.593283 
Ly       = 24.593283 Lz       = 24.593283 Density  = 1.029701 
Volume   = 14874.743875 
---------------- Step  1530000 ----- CPU =    903.4476 (sec) ----------------
Time     = 7650000.000000 Temp     = 219.694033 Press    = 445.375432 
PotEng   = -10.560178 KinEng   = 0.653587 Lx       = 24.695789 
Ly       = 24.695789 Lz       = 24.695789 Density  = 1.016932 
Volume   = 15061.516295 
---------------- Step  1540000 ----- CPU =    909.2947 (sec) ----------------
Time     = 7700000.000000 Temp     = 202.319947 Press    = 1127.636897 
PotEng   = -10.658285 KinEng   = 0.601899 Lx       = 24.639355 
Ly       = 24.639355 Lz       = 24.639355 Density  = 1.023935 
Volume   = 14958.498091 
---------------- Step  1550000 ----- CPU =    915.2597 (sec) ----------------
Time     = 7750000.000000 Temp     = 202.213314 Press    = 403.470966 
PotEng   = -10.654793 KinEng   = 0.601582 Lx       = 24.640103 
Ly       = 24.640103 Lz       = 24.640103 Density  = 1.023842 
Volume   = 14959.861491 
---------------- Step  1560000 ----- CPU =    921.2355 (sec) ----------------
Time     = 7800000.000000 Temp     = 197.791553 Press    = 1654.776966 
PotEng   = -10.691275 KinEng   = 0.588428 Lx       = 24.615964 
Ly       = 24.615964 Lz       = 24.615964 Density  = 1.026857 
Volume   = 14915.936961 
---------------- Step  1570000 ----- CPU =    927.2195 (sec) ----------------
Time     = 7850000.000000 Temp     = 212.217087 Press    = 566.724655 
PotEng   = -10.548186 KinEng   = 0.631343 Lx       = 24.642264 
Ly       = 24.642264 Lz       = 24.642264 Density  = 1.023573 
Volume   = 14963.798075 
---------------- Step  1580000 ----- CPU =    933.2325 (sec) ----------------
Time     = 7900000.000000 Temp     = 217.515631 Press    = 1676.126299 
PotEng   = -10.638838 KinEng   = 0.647106 Lx       = 24.631247 
Ly       = 24.631247 Lz       = 24.631247 Density  = 1.024947 
Volume   = 14943.735805 
---------------- Step  1590000 ----- CPU =    939.1887 (sec) ----------------
Time     = 7950000.000000 Temp     = 199.925081 Press    = 1724.900631 
PotEng   = -10.685498 KinEng   = 0.594775 Lx       = 24.611739 
Ly       = 24.611739 Lz       = 24.611739 Density  = 1.027386 
Volume   = 14908.257869 
---------------- Step  1600000 ----- CPU =    945.1485 (sec) ----------------
Time     = 8000000.000000 Temp     = 232.592129 Press    = 1638.855896 
PotEng   = -10.653292 KinEng   = 0.691959 Lx       = 24.699829 
Ly       = 24.699829 Lz       = 24.699829 Density  = 1.016433 
Volume   = 15068.909951 
---------------- Step  1610000 ----- CPU =    951.1065 (sec) ----------------
Time     = 8050000.000000 Temp     = 218.368577 Press    = 498.010176 
PotEng   = -10.681351 KinEng   = 0.649644 Lx       = 24.734109 
Ly       = 24.734109 Lz       = 24.734109 Density  = 1.012213 
Volume   = 15131.738181 
---------------- Step  1620000 ----- CPU =    957.0949 (sec) ----------------
Time     = 8100000.000000 Temp     = 204.635663 Press    = 64.671038 
PotEng   = -10.625233 KinEng   = 0.608789 Lx       = 24.722179 
Ly       = 24.722179 Lz       = 24.722179 Density  = 1.013679 
Volume   = 15109.853434 
---------------- Step  1630000 ----- CPU =    962.9585 (sec) ----------------
Time     = 8150000.000000 Temp     = 216.193266 Press    = 497.035853 
PotEng   = -10.672860 KinEng   = 0.643172 Lx       = 24.721776 
Ly       = 24.721776 Lz       = 24.721776 Density  = 1.013728 
Volume   = 15109.114474 
---------------- Step  1640000 ----- CPU =    968.7922 (sec) ----------------
Time     = 8200000.000000 Temp     = 191.511649 Press    = 1554.313325 
PotEng   = -10.650600 KinEng   = 0.569745 Lx       = 24.671713 
Ly       = 24.671713 Lz       = 24.671713 Density  = 1.019912 
Volume   = 15017.509949 
---------------- Step  1650000 ----- CPU =    974.5745 (sec) ----------------
Time     = 8250000.000000 Temp     = 210.928447 Press    = 243.313675 
PotEng   = -10.676844 KinEng   = 0.627510 Lx       = 24.670633 
Ly       = 24.670633 Lz       = 24.670633 Density  = 1.020046 
Volume   = 15015.537621 
---------------- Step  1660000 ----- CPU =    980.4689 (sec) ----------------
Time     = 8300000.000000 Temp     = 209.307982 Press    = 599.669876 
PotEng   = -10.637064 KinEng   = 0.622689 Lx       = 24.690017 
Ly       = 24.690017 Lz       = 24.690017 Density  = 1.017645 
Volume   = 15050.957998 
---------------- Step  1670000 ----- CPU =    986.3307 (sec) ----------------
Time     = 8350000.000000 Temp     = 206.574385 Press    = 2028.604082 
PotEng   = -10.582919 KinEng   = 0.614556 Lx       = 24.605416 
Ly       = 24.605416 Lz       = 24.605416 Density  = 1.028178 
Volume   = 14896.771260 
---------------- Step  1680000 ----- CPU =    992.2312 (sec) ----------------
Time     = 8400000.000000 Temp     = 209.314809 Press    = 1155.481329 
PotEng   = -10.625554 KinEng   = 0.622709 Lx       = 24.648548 
Ly       = 24.648548 Lz       = 24.648548 Density  = 1.022790 
Volume   = 14975.247188 
---------------- Step  1690000 ----- CPU =    998.1592 (sec) ----------------
Time     = 8450000.000000 Temp     = 206.112125 Press    = 962.955758 
PotEng   = -10.629857 KinEng   = 0.613181 Lx       = 24.682356 
Ly       = 24.682356 Lz       = 24.682356 Density  = 1.018593 
Volume   = 15036.952428 
---------------- Step  1700000 ----- CPU =   1004.1638 (sec) ----------------
Time     = 8500000.000000 Temp     = 222.938196 Press    = 1464.202309 
PotEng   = -10.686758 KinEng   = 0.663238 Lx       = 24.613788 
Ly       = 24.613788 Lz       = 24.613788 Density  = 1.027129 
Volume   = 14911.981996 
---------------- Step  1710000 ----- CPU =   1009.9747 (sec) ----------------
Time     = 8550000.000000 Temp     = 209.426510 Press    = 934.752060 
PotEng   = -10.675556 KinEng   = 0.623041 Lx       = 24.592348 
Ly       = 24.592348 Lz       = 24.592348 Density  = 1.029818 
Volume   = 14873.047397 
---------------- Step  1720000 ----- CPU =   1015.8867 (sec) ----------------
Time     = 8600000.000000 Temp     = 218.289298 Press    = 683.720994 
PotEng   = -10.693717 KinEng   = 0.649408 Lx       = 24.695079 
Ly       = 24.695079 Lz       = 24.695079 Density  = 1.017019 
Volume   = 15060.217792 
---------------- Step  1730000 ----- CPU =   1021.8148 (sec) ----------------
Time     = 8650000.000000 Temp     = 201.344200 Press    = 747.898065 
PotEng   = -10.658110 KinEng   = 0.598997 Lx       = 24.633970 
Ly       = 24.633970 Lz       = 24.633970 Density  = 1.024607 
Volume   = 14948.693662 
---------------- Step  1740000 ----- CPU =   1027.7719 (sec) ----------------
Time     = 8700000.000000 Temp     = 203.462475 Press    = 1260.800794 
PotEng   = -10.681275 KinEng   = 0.605298 Lx       = 24.676788 
Ly       = 24.676788 Lz       = 24.676788 Density  = 1.019283 
Volume   = 15026.779257 
---------------- Step  1750000 ----- CPU =   1033.7695 (sec) ----------------
Time     = 8750000.000000 Temp     = 222.507237 Press    = 529.501344 
PotEng   = -10.659090 KinEng   = 0.661956 Lx       = 24.709156 
Ly       = 24.709156 Lz       = 24.709156 Density  = 1.015282 
Volume   = 15085.987212 
---------------- Step  1760000 ----- CPU =   1039.6781 (sec) ----------------
Time     = 8800000.000000 Temp     = 219.313640 Press    = 1348.678264 
PotEng   = -10.670114 KinEng   = 0.652455 Lx       = 24.716194 
Ly       = 24.716194 Lz       = 24.716194 Density  = 1.014415 
Volume   = 15098.881955 
---------------- Step  1770000 ----- CPU =   1045.6314 (sec) ----------------
Time     = 8850000.000000 Temp     = 220.114590 Press    = 1191.373137 
PotEng   = -10.598254 KinEng   = 0.654838 Lx       = 24.689730 
Ly       = 24.689730 Lz       = 24.689730 Density  = 1.017681 
Volume   = 15050.433957 
---------------- Step  1780000 ----- CPU =   1051.6182 (sec) ----------------
Time     = 8900000.000000 Temp     = 197.686924 Press    = 1024.669293 
PotEng   = -10.657988 KinEng   = 0.588116 Lx       = 24.643147 
Ly       = 24.643147 Lz       = 24.643147 Density  = 1.023463 
Volume   = 14965.405414 
---------------- Step  1790000 ----- CPU =   1057.4617 (sec) ----------------
Time     = 8950000.000000 Temp     = 207.662436 Press    = 1182.726171 
PotEng   = -10.662891 KinEng   = 0.617793 Lx       = 24.686422 
Ly       = 24.686422 Lz       = 24.686422 Density  = 1.018090 
Volume   = 15044.386018 
---------------- Step  1800000 ----- CPU =   1063.5035 (sec) ----------------
Time     = 9000000.000000 Temp     = 212.236990 Press    = 779.012421 
PotEng   = -10.686554 KinEng   = 0.631403 Lx       = 24.675275 
Ly       = 24.675275 Lz       = 24.675275 Density  = 1.019470 
Volume   = 15024.014554 
---------------- Step  1810000 ----- CPU =   1069.4944 (sec) ----------------
Time     = 9050000.000000 Temp     = 205.134227 Press    = 1251.174726 
PotEng   = -10.642339 KinEng   = 0.610272 Lx       = 24.668870 
Ly       = 24.668870 Lz       = 24.668870 Density  = 1.020264 
Volume   = 15012.318901 
---------------- Step  1820000 ----- CPU =   1075.5214 (sec) ----------------
Time     = 9100000.000000 Temp     = 221.924611 Press    = 1138.514553 
PotEng   = -10.623894 KinEng   = 0.660223 Lx       = 24.677135 
Ly       = 24.677135 Lz       = 24.677135 Density  = 1.019240 
Volume   = 15027.412590 
---------------- Step  1830000 ----- CPU =   1081.4193 (sec) ----------------
Time     = 9150000.000000 Temp     = 215.751251 Press    = 1244.528660 
PotEng   = -10.621628 KinEng   = 0.641857 Lx       = 24.714021 
Ly       = 24.714021 Lz       = 24.714021 Density  = 1.014683 
Volume   = 15094.899955 
---------------- Step  1840000 ----- CPU =   1087.4192 (sec) ----------------
Time     = 9200000.000000 Temp     = 200.054270 Press    = 1479.542470 
PotEng   = -10.612285 KinEng   = 0.595159 Lx       = 24.641183 
Ly       = 24.641183 Lz       = 24.641183 Density  = 1.023707 
Volume   = 14961.828933 
---------------- Step  1850000 ----- CPU =   1093.2938 (sec) ----------------
Time     = 9250000.000000 Temp     = 218.094437 Press    = 1302.720961 
PotEng   = -10.660649 KinEng   = 0.648828 Lx       = 24.636581 
Ly       = 24.636581 Lz       = 24.636581 Density  = 1.024281 
Volume   = 14953.447328 
---------------- Step  1860000 ----- CPU =   1099.2228 (sec) ----------------
Time     = 9300000.000000 Temp     = 209.301186 Press    = 814.719146 
PotEng   = -10.674573 KinEng   = 0.622669 Lx       = 24.715581 
Ly       = 24.715581 Lz       = 24.715581 Density  = 1.014491 
Volume   = 15097.757948 
---------------- Step  1870000 ----- CPU =   1105.1740 (sec) ----------------
Time     = 9350000.000000 Temp     = 213.016865 Press    = 1959.222312 
PotEng   = -10.643788 KinEng   = 0.633723 Lx       = 24.710629 
Ly       = 24.710629 Lz       = 24.710629 Density  = 1.015101 
Volume   = 15088.684871 
---------------- Step  1880000 ----- CPU =   1111.0896 (sec) ----------------
Time     = 9400000.000000 Temp     = 201.123690 Press    = 1191.184188 
PotEng   = -10.639215 KinEng   = 0.598341 Lx       = 24.713736 
Ly       = 24.713736 Lz       = 24.713736 Density  = 1.014718 
Volume   = 15094.377404 
---------------- Step  1890000 ----- CPU =   1116.9620 (sec) ----------------
Time     = 9450000.000000 Temp     = 214.068014 Press    = 1004.603402 
PotEng   = -10.645728 KinEng   = 0.636850 Lx       = 24.678984 
Ly       = 24.678984 Lz       = 24.678984 Density  = 1.019011 
Volume   = 15030.790154 
---------------- Step  1900000 ----- CPU =   1122.8254 (sec) ----------------
Time     = 9500000.000000 Temp     = 206.068630 Press    = 392.765857 
PotEng   = -10.683389 KinEng   = 0.613052 Lx       = 24.773721 
Ly       = 24.773721 Lz       = 24.773721 Density  = 1.007365 
Volume   = 15204.555632 
---------------- Step  1910000 ----- CPU =   1128.6346 (sec) ----------------
Time     = 9550000.000000 Temp     = 208.523065 Press    = 1026.424258 
PotEng   = -10.667628 KinEng   = 0.620354 Lx       = 24.699547 
Ly       = 24.699547 Lz       = 24.699547 Density  = 1.016468 
Volume   = 15068.394499 
---------------- Step  1920000 ----- CPU =   1134.5796 (sec) ----------------
Time     = 9600000.000000 Temp     = 227.790736 Press    = 1720.688765 
PotEng   = -10.690262 KinEng   = 0.677675 Lx       = 24.667317 
Ly       = 24.667317 Lz       = 24.667317 Density  = 1.020457 
Volume   = 15009.483836 
---------------- Step  1930000 ----- CPU =   1140.5119 (sec) ----------------
Time     = 9650000.000000 Temp     = 213.171897 Press    = 1155.346774 
PotEng   = -10.666696 KinEng   = 0.634184 Lx       = 24.704670 
Ly       = 24.704670 Lz       = 24.704670 Density  = 1.015835 
Volume   = 15077.772733 
---------------- Step  1940000 ----- CPU =   1146.4985 (sec) ----------------
Time     = 9700000.000000 Temp     = 209.765213 Press    = 723.481348 
PotEng   = -10.731316 KinEng   = 0.624049 Lx       = 24.710150 
Ly       = 24.710150 Lz       = 24.710150 Density  = 1.015160 
Volume   = 15087.808497 
---------------- Step  1950000 ----- CPU =   1152.3095 (sec) ----------------
Time     = 9750000.000000 Temp     = 202.296308 Press    = 1401.542636 
PotEng   = -10.708814 KinEng   = 0.601829 Lx       = 24.740994 
Ly       = 24.740994 Lz       = 24.740994 Density  = 1.011368 
Volume   = 15144.377631 
---------------- Step  1960000 ----- CPU =   1158.2928 (sec) ----------------
Time     = 9800000.000000 Temp     = 190.418909 Press    = 1397.283444 
PotEng   = -10.634867 KinEng   = 0.566494 Lx       = 24.685542 
Ly       = 24.685542 Lz       = 24.685542 Density  = 1.018199 
Volume   = 15042.777081 
---------------- Step  1970000 ----- CPU =   1164.3046 (sec) ----------------
Time     = 9850000.000000 Temp     = 216.066501 Press    = -117.491986 
PotEng   = -10.674337 KinEng   = 0.642795 Lx       = 24.844726 
Ly       = 24.844726 Lz       = 24.844726 Density  = 0.998753 
Volume   = 15335.665860 
---------------- Step  1980000 ----- CPU =   1170.1314 (sec) ----------------
Time     = 9900000.000000 Temp     = 215.266588 Press    = 772.916456 
PotEng   = -10.705923 KinEng   = 0.640416 Lx       = 24.736186 
Ly       = 24.736186 Lz       = 24.736186 Density  = 1.011958 
Volume   = 15135.549372 
---------------- Step  1990000 ----- CPU =   1176.0128 (sec) ----------------
Time     = 9950000.000000 Temp     = 212.099376 Press    = -496.687182 
PotEng   = -10.641787 KinEng   = 0.630993 Lx       = 24.756348 
Ly       = 24.756348 Lz       = 24.756348 Density  = 1.009487 
Volume   = 15172.590672 
---------------- Step  2000000 ----- CPU =   1181.8656 (sec) ----------------
Time     = 10000000.000000 Temp     = 203.121207 Press    = 1659.240820 
PotEng   = -10.702109 KinEng   = 0.604283 Lx       = 24.736620 
Ly       = 24.736620 Lz       = 24.736620 Density  = 1.011904 
Volume   = 15136.347333 
---------------- Step  2010000 ----- CPU =   1187.7153 (sec) ----------------
Time     = 10050000.000000 Temp     = 214.021226 Press    = 1091.649156 
PotEng   = -10.622788 KinEng   = 0.636711 Lx       = 24.660140 
Ly       = 24.660140 Lz       = 24.660140 Density  = 1.021348 
Volume   = 14996.386720 
---------------- Step  2020000 ----- CPU =   1193.7030 (sec) ----------------
Time     = 10100000.000000 Temp     = 208.234431 Press    = 1012.236614 
PotEng   = -10.695353 KinEng   = 0.619495 Lx       = 24.704704 
Ly       = 24.704704 Lz       = 24.704704 Density  = 1.015831 
Volume   = 15077.834824 
---------------- Step  2030000 ----- CPU =   1199.6696 (sec) ----------------
Time     = 10150000.000000 Temp     = 204.459499 Press    = 699.109642 
PotEng   = -10.643467 KinEng   = 0.608265 Lx       = 24.760396 
Ly       = 24.760396 Lz       = 24.760396 Density  = 1.008992 
Volume   = 15180.033822 
---------------- Step  2040000 ----- CPU =   1205.6163 (sec) ----------------
Time     = 10200000.000000 Temp     = 211.738786 Press    = 230.724650 
PotEng   = -10.588982 KinEng   = 0.629920 Lx       = 24.681519 
Ly       = 24.681519 Lz       = 24.681519 Density  = 1.018697 
Volume   = 15035.423520 
---------------- Step  2050000 ----- CPU =   1211.7258 (sec) ----------------
Time     = 10250000.000000 Temp     = 208.266213 Press    = 1087.515121 
PotEng   = -10.653919 KinEng   = 0.619590 Lx       = 24.609117 
Ly       = 24.609117 Lz       = 24.609117 Density  = 1.027714 
Volume   = 14903.493223 
---------------- Step  2060000 ----- CPU =   1217.8024 (sec) ----------------
Time     = 10300000.000000 Temp     = 197.985563 Press    = 1236.772728 
PotEng   = -10.596683 KinEng   = 0.589005 Lx       = 24.648480 
Ly       = 24.648480 Lz       = 24.648480 Density  = 1.022799 
Volume   = 14975.123269 
---------------- Step  2070000 ----- CPU =   1223.7908 (sec) ----------------
Time     = 10350000.000000 Temp     = 219.620866 Press    = 19.852339 
PotEng   = -10.623332 KinEng   = 0.653369 Lx       = 24.793431 
Ly       = 24.793431 Lz       = 24.793431 Density  = 1.004964 
Volume   = 15240.874119 
---------------- Step  2080000 ----- CPU =   1229.8016 (sec) ----------------
Time     = 10400000.000000 Temp     = 218.471117 Press    = 897.334525 
PotEng   = -10.635628 KinEng   = 0.649949 Lx       = 24.633213 
Ly       = 24.633213 Lz       = 24.633213 Density  = 1.024701 
Volume   = 14947.314077 
---------------- Step  2090000 ----- CPU =   1235.6739 (sec) ----------------
Time     = 10450000.000000 Temp     = 219.577337 Press    = 365.303710 
PotEng   = -10.615041 KinEng   = 0.653240 Lx       = 24.635930 
Ly       = 24.635930 Lz       = 24.635930 Density  = 1.024362 
Volume   = 14952.262336 
---------------- Step  2100000 ----- CPU =   1241.6559 (sec) ----------------
Time     = 10500000.000000 Temp     = 201.219720 Press    = 1080.666581 
PotEng   = -10.628422 KinEng   = 0.598626 Lx       = 24.698099 
Ly       = 24.698099 Lz       = 24.698099 Density  = 1.016646 
Volume   = 15065.744807 
---------------- Step  2110000 ----- CPU =   1247.7192 (sec) ----------------
Time     = 10550000.000000 Temp     = 195.502850 Press    = 1098.209455 
PotEng   = -10.609472 KinEng   = 0.581619 Lx       = 24.674557 
Ly       = 24.674557 Lz       = 24.674557 Density  = 1.019559 
Volume   = 15022.704118 
---------------- Step  2120000 ----- CPU =   1253.6674 (sec) ----------------
Time     = 10600000.000000 Temp     = 202.010685 Press    = -120.800162 
PotEng   = -10.625333 KinEng   = 0.600979 Lx       = 24.826358 
Ly       = 24.826358 Lz       = 24.826358 Density  = 1.000971 
Volume   = 15301.677405 
---------------- Step  2130000 ----- CPU =   1259.6158 (sec) ----------------
Time     = 10650000.000000 Temp     = 216.749267 Press    = 1351.869512 
PotEng   = -10.670309 KinEng   = 0.644827 Lx       = 24.717956 
Ly       = 24.717956 Lz       = 24.717956 Density  = 1.014198 
Volume   = 15102.111336 
---------------- Step  2140000 ----- CPU =   1265.6459 (sec) ----------------
Time     = 10700000.000000 Temp     = 211.930254 Press    = 1260.693985 
PotEng   = -10.648490 KinEng   = 0.630490 Lx       = 24.659954 
Ly       = 24.659954 Lz       = 24.659954 Density  = 1.021371 
Volume   = 14996.047438 
---------------- Step  2150000 ----- CPU =   1271.7056 (sec) ----------------
Time     = 10750000.000000 Temp     = 212.573754 Press    = 1218.259757 
PotEng   = -10.647356 KinEng   = 0.632404 Lx       = 24.615966 
Ly       = 24.615966 Lz       = 24.615966 Density  = 1.026857 
Volume   = 14915.940197 
---------------- Step  2160000 ----- CPU =   1277.7058 (sec) ----------------
Time     = 10800000.000000 Temp     = 223.166379 Press    = -109.510602 
PotEng   = -10.620280 KinEng   = 0.663917 Lx       = 24.713854 
Ly       = 24.713854 Lz       = 24.713854 Density  = 1.014703 
Volume   = 15094.594614 
---------------- Step  2170000 ----- CPU =   1283.7299 (sec) ----------------
Time     = 10850000.000000 Temp     = 196.972324 Press    = -61.033024 
PotEng   = -10.623949 KinEng   = 0.585990 Lx       = 24.708944 
Ly       = 24.708944 Lz       = 24.708944 Density  = 1.015308 
Volume   = 15085.599610 
---------------- Step  2180000 ----- CPU =   1289.7616 (sec) ----------------
Time     = 10900000.000000 Temp     = 197.044014 Press    = 1104.942687 
PotEng   = -10.626018 KinEng   = 0.586204 Lx       = 24.729045 
Ly       = 24.729045 Lz       = 24.729045 Density  = 1.012834 
Volume   = 15122.445705 
---------------- Step  2190000 ----- CPU =   1295.6626 (sec) ----------------
Time     = 10950000.000000 Temp     = 199.490785 Press    = 985.864968 
PotEng   = -10.696803 KinEng   = 0.593483 Lx       = 24.722084 
Ly       = 24.722084 Lz       = 24.722084 Density  = 1.013690 
Volume   = 15109.678429 
---------------- Step  2200000 ----- CPU =   1301.6681 (sec) ----------------
Time     = 11000000.000000 Temp     = 223.033803 Press    = 874.178700 
PotEng   = -10.695143 KinEng   = 0.663523 Lx       = 24.781803 
Ly       = 24.781803 Lz       = 24.781803 Density  = 1.006380 
Volume   = 15219.441027 
---------------- Step  2210000 ----- CPU =   1307.5810 (sec) ----------------
Time     = 11050000.000000 Temp     = 209.295332 Press    = 436.422969 
PotEng   = -10.698498 KinEng   = 0.622651 Lx       = 24.718878 
Ly       = 24.718878 Lz       = 24.718878 Density  = 1.014085 
Volume   = 15103.801058 
---------------- Step  2220000 ----- CPU =   1313.5218 (sec) ----------------
Time     = 11100000.000000 Temp     = 207.818425 Press    = 951.313411 
PotEng   = -10.675032 KinEng   = 0.618257 Lx       = 24.657949 
Ly       = 24.657949 Lz       = 24.657949 Density  = 1.021621 
Volume   = 14992.388597 
---------------- Step  2230000 ----- CPU =   1319.6434 (sec) ----------------
Time     = 11150000.000000 Temp     = 206.178255 Press    = 1087.600917 
PotEng   = -10.647359 KinEng   = 0.613378 Lx       = 24.661621 
Ly       = 24.661621 Lz       = 24.661621 Density  = 1.021164 
Volume   = 14999.088697 
---------------- Step  2240000 ----- CPU =   1325.4264 (sec) ----------------
Time     = 11200000.000000 Temp     = 218.540012 Press    = 1893.852911 
PotEng   = -10.721415 KinEng   = 0.650154 Lx       = 24.722985 
Ly       = 24.722985 Lz       = 24.722985 Density  = 1.013579 
Volume   = 15111.330916 
---------------- Step  2250000 ----- CPU =   1331.4761 (sec) ----------------
Time     = 11250000.000000 Temp     = 211.883943 Press    = 1435.266424 
PotEng   = -10.626357 KinEng   = 0.630352 Lx       = 24.618470 
Ly       = 24.618470 Lz       = 24.618470 Density  = 1.026543 
Volume   = 14920.493741 
---------------- Step  2260000 ----- CPU =   1337.4946 (sec) ----------------
Time     = 11300000.000000 Temp     = 211.165109 Press    = 1205.656031 
PotEng   = -10.582267 KinEng   = 0.628214 Lx       = 24.632593 
Ly       = 24.632593 Lz       = 24.632593 Density  = 1.024779 
Volume   = 14946.186535 
---------------- Step  2270000 ----- CPU =   1343.3925 (sec) ----------------
Time     = 11350000.000000 Temp     = 210.278567 Press    = 1460.354287 
PotEng   = -10.662712 KinEng   = 0.625576 Lx       = 24.633445 
Ly       = 24.633445 Lz       = 24.633445 Density  = 1.024672 
Volume   = 14947.737684 
---------------- Step  2280000 ----- CPU =   1349.2620 (sec) ----------------
Time     = 11400000.000000 Temp     = 214.232681 Press    = 1244.207085 
PotEng   = -10.653744 KinEng   = 0.637340 Lx       = 24.595016 
Ly       = 24.595016 Lz       = 24.595016 Density  = 1.029483 
Volume   = 14877.889257 
---------------- Step  2290000 ----- CPU =   1355.2933 (sec) ----------------
Time     = 11450000.000000 Temp     = 209.648718 Press    = 1030.544603 
PotEng   = -10.691622 KinEng   = 0.623702 Lx       = 24.627673 
Ly       = 24.627673 Lz       = 24.627673 Density  = 1.025393 
Volume   = 14937.232638 
---------------- Step  2300000 ----- CPU =   1361.1607 (sec) ----------------
Time     = 11500000.000000 Temp     = 212.514137 Press    = 614.563787 
PotEng   = -10.678946 KinEng   = 0.632227 Lx       = 24.712126 
Ly       = 24.712126 Lz       = 24.712126 Density  = 1.014916 
Volume   = 15091.427482 
---------------- Step  2310000 ----- CPU =   1367.1518 (sec) ----------------
Time     = 11550000.000000 Temp     = 204.329894 Press    = 1047.278315 
PotEng   = -10.652135 KinEng   = 0.607879 Lx       = 24.681986 
Ly       = 24.681986 Lz       = 24.681986 Density  = 1.018639 
Volume   = 15036.276276 
---------------- Step  2320000 ----- CPU =   1373.0115 (sec) ----------------
Time     = 11600000.000000 Temp     = 206.085906 Press    = 559.424519 
PotEng   = -10.694104 KinEng   = 0.613103 Lx       = 24.730018 
Ly       = 24.730018 Lz       = 24.730018 Density  = 1.012715 
Volume   = 15124.231734 
---------------- Step  2330000 ----- CPU =   1379.0555 (sec) ----------------
Time     = 11650000.000000 Temp     = 224.339317 Press    = 1887.669709 
PotEng   = -10.629647 KinEng   = 0.667407 Lx       = 24.624105 
Ly       = 24.624105 Lz       = 24.624105 Density  = 1.025839 
Volume   = 14930.740355 
---------------- Step  2340000 ----- CPU =   1384.9412 (sec) ----------------
Time     = 11700000.000000 Temp     = 208.396674 Press    = 1884.001760 
PotEng   = -10.573692 KinEng   = 0.619978 Lx       = 24.575199 
Ly       = 24.575199 Lz       = 24.575199 Density  = 1.031976 
Volume   = 14841.954863 
---------------- Step  2350000 ----- CPU =   1390.7914 (sec) ----------------
Time     = 11750000.000000 Temp     = 208.586433 Press    = 821.874174 
PotEng   = -10.614033 KinEng   = 0.620542 Lx       = 24.723307 
Ly       = 24.723307 Lz       = 24.723307 Density  = 1.013540 
Volume   = 15111.921718 
---------------- Step  2360000 ----- CPU =   1396.6753 (sec) ----------------
Time     = 11800000.000000 Temp     = 202.885389 Press    = 1748.414148 
PotEng   = -10.643936 KinEng   = 0.603582 Lx       = 24.570124 
Ly       = 24.570124 Lz       = 24.570124 Density  = 1.032615 
Volume   = 14832.762583 
---------------- Step  2370000 ----- CPU =   1402.5471 (sec) ----------------
Time     = 11850000.000000 Temp     = 216.767468 Press    = 1932.307501 
PotEng   = -10.732756 KinEng   = 0.644881 Lx       = 24.747825 
Ly       = 24.747825 Lz       = 24.747825 Density  = 1.010530 
Volume   = 15156.925848 
---------------- Step  2380000 ----- CPU =   1408.4288 (sec) ----------------
Time     = 11900000.000000 Temp     = 210.513295 Press    = 971.115034 
PotEng   = -10.602648 KinEng   = 0.626275 Lx       = 24.682876 
Ly       = 24.682876 Lz       = 24.682876 Density  = 1.018529 
Volume   = 15037.903959 
---------------- Step  2390000 ----- CPU =   1414.3520 (sec) ----------------
Time     = 11950000.000000 Temp     = 215.972984 Press    = 960.960627 
PotEng   = -10.649190 KinEng   = 0.642517 Lx       = 24.697139 
Ly       = 24.697139 Lz       = 24.697139 Density  = 1.016765 
Volume   = 15063.987521 
---------------- Step  2400000 ----- CPU =   1420.3681 (sec) ----------------
Time     = 12000000.000000 Temp     = 208.762028 Press    = 2428.150073 
PotEng   = -10.694388 KinEng   = 0.621065 Lx       = 24.637870 
Ly       = 24.637870 Lz       = 24.637870 Density  = 1.024120 
Volume   = 14955.794908 
---------------- Step  2410000 ----- CPU =   1426.3495 (sec) ----------------
Time     = 12050000.000000 Temp     = 214.236746 Press    = 538.488314 
PotEng   = -10.624604 KinEng   = 0.637352 Lx       = 24.713173 
Ly       = 24.713173 Lz       = 24.713173 Density  = 1.014787 
Volume   = 15093.345609 
---------------- Step  2420000 ----- CPU =   1432.2007 (sec) ----------------
Time     = 12100000.000000 Temp     = 201.417560 Press    = 762.717063 
PotEng   = -10.651756 KinEng   = 0.599215 Lx       = 24.626270 
Ly       = 24.626270 Lz       = 24.626270 Density  = 1.025568 
Volume   = 14934.680127 
---------------- Step  2430000 ----- CPU =   1438.0573 (sec) ----------------
Time     = 12150000.000000 Temp     = 195.422089 Press    = 562.221794 
PotEng   = -10.609635 KinEng   = 0.581378 Lx       = 24.649485 
Ly       = 24.649485 Lz       = 24.649485 Density  = 1.022673 
Volume   = 14976.956717 
---------------- Step  2440000 ----- CPU =   1444.0351 (sec) ----------------
Time     = 12200000.000000 Temp     = 224.703927 Press    = 941.943828 
PotEng   = -10.628185 KinEng   = 0.668492 Lx       = 24.738522 
Ly       = 24.738522 Lz       = 24.738522 Density  = 1.011671 
Volume   = 15139.839097 
---------------- Step  2450000 ----- CPU =   1450.0199 (sec) ----------------
Time     = 12250000.000000 Temp     = 209.372468 Press    = 448.439562 
PotEng   = -10.661352 KinEng   = 0.622881 Lx       = 24.677105 
Ly       = 24.677105 Lz       = 24.677105 Density  = 1.019243 
Volume   = 15027.357626 
---------------- Step  2460000 ----- CPU =   1455.8591 (sec) ----------------
Time     = 12300000.000000 Temp     = 200.493081 Press    = 1934.656600 
PotEng   = -10.629431 KinEng   = 0.596465 Lx       = 24.641779 
Ly       = 24.641779 Lz       = 24.641779 Density  = 1.023633 
Volume   = 14962.913252 
---------------- Step  2470000 ----- CPU =   1461.8054 (sec) ----------------
Time     = 12350000.000000 Temp     = 229.275166 Press    = 691.641880 
PotEng   = -10.642342 KinEng   = 0.682091 Lx       = 24.787903 
Ly       = 24.787903 Lz       = 24.787903 Density  = 1.005637 
Volume   = 15230.681879 
---------------- Step  2480000 ----- CPU =   1467.9396 (sec) ----------------
Time     = 12400000.000000 Temp     = 209.902716 Press    = 934.767814 
PotEng   = -10.632402 KinEng   = 0.624458 Lx       = 24.683228 
Ly       = 24.683228 Lz       = 24.683228 Density  = 1.018485 
Volume   = 15038.547257 
---------------- Step  2490000 ----- CPU =   1473.8018 (sec) ----------------
Time     = 12450000.000000 Temp     = 221.628458 Press    = 1183.091817 
PotEng   = -10.696510 KinEng   = 0.659342 Lx       = 24.631669 
Ly       = 24.631669 Lz       = 24.631669 Density  = 1.024894 
Volume   = 14944.505006 
---------------- Step  2500000 ----- CPU =   1479.7618 (sec) ----------------
Time     = 12500000.000000 Temp     = 198.239926 Press    = 952.135847 
PotEng   = -10.682735 KinEng   = 0.589761 Lx       = 24.659639 
Ly       = 24.659639 Lz       = 24.659639 Density  = 1.021411 
Volume   = 14995.471784 
Loop time of 1479.76 on 6 procs for 2500000 steps with 512 atoms

Performance: 729.847 ns/day, 0.033 hours/ns, 1689.461 timesteps/s
96.7% CPU use with 6 MPI tasks x no OpenMP threads

MPI task timing breakdown:
Section |  min time  |  avg time  |  max time  |%varavg| %total
---------------------------------------------------------------
Pair    | 1223.2     | 1239       | 1275.3     |  49.8 | 83.73
Neigh   | 29.296     | 29.597     | 30.705     |   9.2 |  2.00
Comm    | 140.62     | 178.29     | 194.4      | 135.7 | 12.05
Output  | 0.0066898  | 0.012866   | 0.043691   |  12.2 |  0.00
Modify  | 26.643     | 26.972     | 27.239     |   4.4 |  1.82
Other   |            | 5.882      |            |       |  0.40

Nlocal:    85.3333 ave 88 max 83 min
Histogram: 2 0 0 0 2 0 0 0 0 2
Nghost:    574 ave 580 max 571 min
Histogram: 1 2 1 0 0 1 0 0 0 1
Neighs:    0 ave 0 max 0 min
Histogram: 6 0 0 0 0 0 0 0 0 0
FullNghs:  2893.67 ave 2977 max 2809 min
Histogram: 2 0 0 0 2 0 0 0 0 2

Total # of neighbors = 17362
Ave neighs/atom = 33.9102
Neighbor list builds = 126632
Dangerous builds = 0
Setting up Verlet run ...
  Unit style    : real
  Current step  : 2500000
  Time step     : 5
Per MPI rank memory allocation (min/avg/max) = 2.945 | 2.946 | 2.946 Mbytes
---------------- Step  2500000 ----- CPU =      0.0000 (sec) ----------------
Time     = 12500000.000000 Temp     = 198.239926 Press    = 952.135847 
PotEng   = -10.682735 KinEng   = 0.589761 Lx       = 24.659639 
Ly       = 24.659639 Lz       = 24.659639 Density  = 1.021411 
Volume   = 14995.471784 
---------------- Step  2510000 ----- CPU =      5.9483 (sec) ----------------
Time     = 12550000.000000 Temp     = 202.911016 Press    = -28.074622 
PotEng   = -10.611450 KinEng   = 0.603658 Lx       = 24.656518 
Ly       = 24.656518 Lz       = 24.656518 Density  = 1.021799 
Volume   = 14989.779658 
---------------- Step  2520000 ----- CPU =     11.9425 (sec) ----------------
Time     = 12600000.000000 Temp     = 207.167843 Press    = 720.362416 
PotEng   = -10.735407 KinEng   = 0.616322 Lx       = 24.691450 
Ly       = 24.691450 Lz       = 24.691450 Density  = 1.017468 
Volume   = 15053.579382 
---------------- Step  2530000 ----- CPU =     17.9261 (sec) ----------------
Time     = 12650000.000000 Temp     = 197.165737 Press    = 532.443332 
PotEng   = -10.645859 KinEng   = 0.586566 Lx       = 24.646883 
Ly       = 24.646883 Lz       = 24.646883 Density  = 1.022997 
Volume   = 14972.213756 
---------------- Step  2540000 ----- CPU =     23.9954 (sec) ----------------
Time     = 12700000.000000 Temp     = 214.034101 Press    = 917.248202 
PotEng   = -10.619268 KinEng   = 0.636749 Lx       = 24.716653 
Ly       = 24.716653 Lz       = 24.716653 Density  = 1.014359 
Volume   = 15099.722507 
---------------- Step  2550000 ----- CPU =     30.1635 (sec) ----------------
Time     = 12750000.000000 Temp     = 212.368367 Press    = 1376.361601 
PotEng   = -10.679128 KinEng   = 0.631793 Lx       = 24.643448 
Ly       = 24.643448 Lz       = 24.643448 Density  = 1.023425 
Volume   = 14965.954448 
---------------- Step  2560000 ----- CPU =     36.1866 (sec) ----------------
Time     = 12800000.000000 Temp     = 212.533084 Press    = 135.735800 
PotEng   = -10.650867 KinEng   = 0.632283 Lx       = 24.775383 
Ly       = 24.775383 Lz       = 24.775383 Density  = 1.007162 
Volume   = 15207.615454 
---------------- Step  2570000 ----- CPU =     42.1041 (sec) ----------------
Time     = 12850000.000000 Temp     = 211.857674 Press    = -85.846668 
[...]
Ly       = 24.694236 Lz       = 24.694236 Density  = 1.017124 
Volume   = 15058.676555 
---------------- Step 11890000 ----- CPU =   5613.5571 (sec) ----------------
Time     = 59450000.000000 Temp     = 218.985184 Press    = 956.997420 
PotEng   = -10.655606 KinEng   = 0.651478 Lx       = 24.676940 
Ly       = 24.676940 Lz       = 24.676940 Density  = 1.019264 
Volume   = 15027.055644 
---------------- Step 11900000 ----- CPU =   5619.7226 (sec) ----------------
Time     = 59500000.000000 Temp     = 218.842644 Press    = 882.758673 
PotEng   = -10.669716 KinEng   = 0.651054 Lx       = 24.649446 
Ly       = 24.649446 Lz       = 24.649446 Density  = 1.022678 
Volume   = 14976.885555 
---------------- Step 11910000 ----- CPU =   5625.7955 (sec) ----------------
Time     = 59550000.000000 Temp     = 207.499361 Press    = 2013.735500 
PotEng   = -10.683975 KinEng   = 0.617308 Lx       = 24.621686 
Ly       = 24.621686 Lz       = 24.621686 Density  = 1.026141 
Volume   = 14926.342072 
---------------- Step 11920000 ----- CPU =   5631.7671 (sec) ----------------
Time     = 59600000.000000 Temp     = 209.498088 Press    = 1627.232105 
PotEng   = -10.616094 KinEng   = 0.623254 Lx       = 24.641130 
Ly       = 24.641130 Lz       = 24.641130 Density  = 1.023714 
Volume   = 14961.732208 
---------------- Step 11930000 ----- CPU =   5637.8081 (sec) ----------------
Time     = 59650000.000000 Temp     = 203.220745 Press    = 1129.098904 
PotEng   = -10.659806 KinEng   = 0.604579 Lx       = 24.678017 
Ly       = 24.678017 Lz       = 24.678017 Density  = 1.019130 
Volume   = 15029.023288 
---------------- Step 11940000 ----- CPU =   5643.7986 (sec) ----------------
Time     = 59700000.000000 Temp     = 208.622161 Press    = 352.644967 
PotEng   = -10.643011 KinEng   = 0.620648 Lx       = 24.695601 
Ly       = 24.695601 Lz       = 24.695601 Density  = 1.016955 
Volume   = 15061.173149 
---------------- Step 11950000 ----- CPU =   5649.9208 (sec) ----------------
Time     = 59750000.000000 Temp     = 201.835833 Press    = 737.399476 
PotEng   = -10.639141 KinEng   = 0.600459 Lx       = 24.659110 
Ly       = 24.659110 Lz       = 24.659110 Density  = 1.021476 
Volume   = 14994.507355 
---------------- Step 11960000 ----- CPU =   5655.8904 (sec) ----------------
Time     = 59800000.000000 Temp     = 202.973570 Press    = 789.268210 
PotEng   = -10.655094 KinEng   = 0.603844 Lx       = 24.755701 
Ly       = 24.755701 Lz       = 24.755701 Density  = 1.009566 
Volume   = 15171.401543 
---------------- Step 11970000 ----- CPU =   5661.8367 (sec) ----------------
Time     = 59850000.000000 Temp     = 216.117074 Press    = 1079.840022 
PotEng   = -10.568879 KinEng   = 0.642946 Lx       = 24.665139 
Ly       = 24.665139 Lz       = 24.665139 Density  = 1.020727 
Volume   = 15005.508778 
---------------- Step 11980000 ----- CPU =   5667.8797 (sec) ----------------
Time     = 59900000.000000 Temp     = 202.122755 Press    = 1339.840897 
PotEng   = -10.654884 KinEng   = 0.601313 Lx       = 24.636153 
Ly       = 24.636153 Lz       = 24.636153 Density  = 1.024335 
Volume   = 14952.667833 
---------------- Step 11990000 ----- CPU =   5673.6655 (sec) ----------------
Time     = 59950000.000000 Temp     = 213.746562 Press    = 1587.935530 
PotEng   = -10.642525 KinEng   = 0.635893 Lx       = 24.652493 
Ly       = 24.652493 Lz       = 24.652493 Density  = 1.022299 
Volume   = 14982.440090 
---------------- Step 12000000 ----- CPU =   5679.7484 (sec) ----------------
Time     = 60000000.000000 Temp     = 219.123027 Press    = 79.995746 
PotEng   = -10.713893 KinEng   = 0.651888 Lx       = 24.747128 
Ly       = 24.747128 Lz       = 24.747128 Density  = 1.010616 
Volume   = 15155.645511 
---------------- Step 12010000 ----- CPU =   5685.7483 (sec) ----------------
Time     = 60050000.000000 Temp     = 201.519803 Press    = 649.048299 
PotEng   = -10.598927 KinEng   = 0.599519 Lx       = 24.689835 
Ly       = 24.689835 Lz       = 24.689835 Density  = 1.017668 
Volume   = 15050.625135 
---------------- Step 12020000 ----- CPU =   5691.7668 (sec) ----------------
Time     = 60100000.000000 Temp     = 206.432642 Press    = 871.698602 
PotEng   = -10.639432 KinEng   = 0.614135 Lx       = 24.662514 
Ly       = 24.662514 Lz       = 24.662514 Density  = 1.021054 
Volume   = 15000.716974 
---------------- Step 12030000 ----- CPU =   5697.7234 (sec) ----------------
Time     = 60150000.000000 Temp     = 204.597512 Press    = 1012.699796 
PotEng   = -10.731338 KinEng   = 0.608675 Lx       = 24.715041 
Ly       = 24.715041 Lz       = 24.715041 Density  = 1.014557 
Volume   = 15096.769181 
---------------- Step 12040000 ----- CPU =   5703.6157 (sec) ----------------
Time     = 60200000.000000 Temp     = 209.144998 Press    = 1130.372421 
PotEng   = -10.635487 KinEng   = 0.622204 Lx       = 24.728488 
Ly       = 24.728488 Lz       = 24.728488 Density  = 1.012903 
Volume   = 15121.423870 
---------------- Step 12050000 ----- CPU =   5709.5864 (sec) ----------------
Time     = 60250000.000000 Temp     = 215.059860 Press    = 791.470957 
PotEng   = -10.651447 KinEng   = 0.639801 Lx       = 24.693763 
Ly       = 24.693763 Lz       = 24.693763 Density  = 1.017182 
Volume   = 15057.810196 
---------------- Step 12060000 ----- CPU =   5715.4937 (sec) ----------------
Time     = 60300000.000000 Temp     = 209.474035 Press    = 44.346015 
PotEng   = -10.630310 KinEng   = 0.623183 Lx       = 24.789063 
Ly       = 24.789063 Lz       = 24.789063 Density  = 1.005496 
Volume   = 15232.821096 
---------------- Step 12070000 ----- CPU =   5721.5494 (sec) ----------------
Time     = 60350000.000000 Temp     = 207.968665 Press    = 1258.198983 
PotEng   = -10.665563 KinEng   = 0.618704 Lx       = 24.691232 
Ly       = 24.691232 Lz       = 24.691232 Density  = 1.017495 
Volume   = 15053.180202 
---------------- Step 12080000 ----- CPU =   5727.6006 (sec) ----------------
Time     = 60400000.000000 Temp     = 216.331489 Press    = 2016.334042 
PotEng   = -10.584784 KinEng   = 0.643584 Lx       = 24.619289 
Ly       = 24.619289 Lz       = 24.619289 Density  = 1.026441 
Volume   = 14921.982061 
---------------- Step 12090000 ----- CPU =   5733.6417 (sec) ----------------
Time     = 60450000.000000 Temp     = 214.127402 Press    = 607.879968 
PotEng   = -10.649017 KinEng   = 0.637026 Lx       = 24.748193 
Ly       = 24.748193 Lz       = 24.748193 Density  = 1.010485 
Volume   = 15157.602249 
---------------- Step 12100000 ----- CPU =   5739.5766 (sec) ----------------
Time     = 60500000.000000 Temp     = 209.743696 Press    = 101.526402 
PotEng   = -10.659314 KinEng   = 0.623985 Lx       = 24.659985 
Ly       = 24.659985 Lz       = 24.659985 Density  = 1.021368 
Volume   = 14996.103017 
---------------- Step 12110000 ----- CPU =   5745.6386 (sec) ----------------
Time     = 60550000.000000 Temp     = 209.673238 Press    = 546.100854 
PotEng   = -10.592083 KinEng   = 0.623775 Lx       = 24.737806 
Ly       = 24.737806 Lz       = 24.737806 Density  = 1.011759 
Volume   = 15138.524655 
---------------- Step 12120000 ----- CPU =   5751.6596 (sec) ----------------
Time     = 60600000.000000 Temp     = 213.084235 Press    = 478.858699 
PotEng   = -10.636516 KinEng   = 0.633923 Lx       = 24.693789 
Ly       = 24.693789 Lz       = 24.693789 Density  = 1.017179 
Volume   = 15057.857545 
---------------- Step 12130000 ----- CPU =   5757.5377 (sec) ----------------
Time     = 60650000.000000 Temp     = 200.961054 Press    = 709.610284 
PotEng   = -10.663050 KinEng   = 0.597857 Lx       = 24.709793 
Ly       = 24.709793 Lz       = 24.709793 Density  = 1.015204 
Volume   = 15087.153413 
---------------- Step 12140000 ----- CPU =   5763.5307 (sec) ----------------
Time     = 60700000.000000 Temp     = 212.139662 Press    = 1286.273490 
PotEng   = -10.631186 KinEng   = 0.631113 Lx       = 24.665269 
Ly       = 24.665269 Lz       = 24.665269 Density  = 1.020711 
Volume   = 15005.744761 
---------------- Step 12150000 ----- CPU =   5769.4956 (sec) ----------------
Time     = 60750000.000000 Temp     = 201.542099 Press    = 543.672269 
PotEng   = -10.640149 KinEng   = 0.599585 Lx       = 24.585193 
Ly       = 24.585193 Lz       = 24.585193 Density  = 1.030717 
Volume   = 14860.070889 
---------------- Step 12160000 ----- CPU =   5775.5420 (sec) ----------------
Time     = 60800000.000000 Temp     = 204.120369 Press    = 663.770466 
PotEng   = -10.646447 KinEng   = 0.607256 Lx       = 24.786165 
Ly       = 24.786165 Lz       = 24.786165 Density  = 1.005848 
Volume   = 15227.478738 
---------------- Step 12170000 ----- CPU =   5781.6343 (sec) ----------------
Time     = 60850000.000000 Temp     = 203.689348 Press    = 1278.361065 
PotEng   = -10.643961 KinEng   = 0.605973 Lx       = 24.606833 
Ly       = 24.606833 Lz       = 24.606833 Density  = 1.028001 
Volume   = 14899.344452 
---------------- Step 12180000 ----- CPU =   5787.6794 (sec) ----------------
Time     = 60900000.000000 Temp     = 209.320565 Press    = 153.139346 
PotEng   = -10.654524 KinEng   = 0.622726 Lx       = 24.758435 
Ly       = 24.758435 Lz       = 24.758435 Density  = 1.009232 
Volume   = 15176.428656 
---------------- Step 12190000 ----- CPU =   5793.6553 (sec) ----------------
Time     = 60950000.000000 Temp     = 205.084113 Press    = 1185.906600 
PotEng   = -10.691377 KinEng   = 0.610123 Lx       = 24.699875 
Ly       = 24.699875 Lz       = 24.699875 Density  = 1.016427 
Volume   = 15068.994882 
---------------- Step 12200000 ----- CPU =   5799.5749 (sec) ----------------
Time     = 61000000.000000 Temp     = 227.689160 Press    = 1366.221864 
PotEng   = -10.639805 KinEng   = 0.677373 Lx       = 24.706839 
Ly       = 24.706839 Lz       = 24.706839 Density  = 1.015568 
Volume   = 15081.744417 
---------------- Step 12210000 ----- CPU =   5805.5831 (sec) ----------------
Time     = 61050000.000000 Temp     = 210.589555 Press    = 1219.877158 
PotEng   = -10.658758 KinEng   = 0.626501 Lx       = 24.721451 
Ly       = 24.721451 Lz       = 24.721451 Density  = 1.013768 
Volume   = 15108.517859 
---------------- Step 12220000 ----- CPU =   5811.5816 (sec) ----------------
Time     = 61100000.000000 Temp     = 208.773273 Press    = 112.458739 
PotEng   = -10.657324 KinEng   = 0.621098 Lx       = 24.643942 
Ly       = 24.643942 Lz       = 24.643942 Density  = 1.023364 
Volume   = 14966.855161 
---------------- Step 12230000 ----- CPU =   5817.5529 (sec) ----------------
Time     = 61150000.000000 Temp     = 216.380520 Press    = 436.591088 
PotEng   = -10.697733 KinEng   = 0.643729 Lx       = 24.825212 
Ly       = 24.825212 Lz       = 24.825212 Density  = 1.001110 
Volume   = 15299.557665 
---------------- Step 12240000 ----- CPU =   5823.6357 (sec) ----------------
Time     = 61200000.000000 Temp     = 202.096251 Press    = 1451.093102 
PotEng   = -10.609925 KinEng   = 0.601234 Lx       = 24.617092 
Ly       = 24.617092 Lz       = 24.617092 Density  = 1.026716 
Volume   = 14917.987975 
---------------- Step 12250000 ----- CPU =   5829.4845 (sec) ----------------
Time     = 61250000.000000 Temp     = 202.706928 Press    = 845.642230 
PotEng   = -10.606329 KinEng   = 0.603051 Lx       = 24.627798 
Ly       = 24.627798 Lz       = 24.627798 Density  = 1.025377 
Volume   = 14937.459731 
---------------- Step 12260000 ----- CPU =   5835.5842 (sec) ----------------
Time     = 61300000.000000 Temp     = 217.702574 Press    = 899.267153 
PotEng   = -10.650547 KinEng   = 0.647663 Lx       = 24.647058 
Ly       = 24.647058 Lz       = 24.647058 Density  = 1.022976 
Volume   = 14972.533104 
---------------- Step 12270000 ----- CPU =   5841.6667 (sec) ----------------
Time     = 61350000.000000 Temp     = 202.682084 Press    = 1642.062440 
PotEng   = -10.662587 KinEng   = 0.602977 Lx       = 24.700297 
Ly       = 24.700297 Lz       = 24.700297 Density  = 1.016375 
Volume   = 15069.766428 
---------------- Step 12280000 ----- CPU =   5847.6742 (sec) ----------------
Time     = 61400000.000000 Temp     = 212.559791 Press    = 776.082369 
PotEng   = -10.636195 KinEng   = 0.632363 Lx       = 24.698857 
Ly       = 24.698857 Lz       = 24.698857 Density  = 1.016553 
Volume   = 15067.131143 
---------------- Step 12290000 ----- CPU =   5853.7324 (sec) ----------------
Time     = 61450000.000000 Temp     = 212.612524 Press    = 1387.678295 
PotEng   = -10.672426 KinEng   = 0.632520 Lx       = 24.722248 
Ly       = 24.722248 Lz       = 24.722248 Density  = 1.013670 
Volume   = 15109.979025 
---------------- Step 12300000 ----- CPU =   5859.7554 (sec) ----------------
Time     = 61500000.000000 Temp     = 206.960027 Press    = 1568.333098 
PotEng   = -10.657573 KinEng   = 0.615704 Lx       = 24.663544 
Ly       = 24.663544 Lz       = 24.663544 Density  = 1.020926 
Volume   = 15002.597809 
---------------- Step 12310000 ----- CPU =   5865.6948 (sec) ----------------
Time     = 61550000.000000 Temp     = 215.994867 Press    = 722.302840 
PotEng   = -10.610150 KinEng   = 0.642582 Lx       = 24.697779 
Ly       = 24.697779 Lz       = 24.697779 Density  = 1.016686 
Volume   = 15065.158295 
---------------- Step 12320000 ----- CPU =   5871.6454 (sec) ----------------
Time     = 61600000.000000 Temp     = 222.271545 Press    = 347.957501 
PotEng   = -10.664067 KinEng   = 0.661255 Lx       = 24.744532 
Ly       = 24.744532 Lz       = 24.744532 Density  = 1.010934 
Volume   = 15150.874856 
---------------- Step 12330000 ----- CPU =   5877.6138 (sec) ----------------
Time     = 61650000.000000 Temp     = 214.586956 Press    = 358.592833 
PotEng   = -10.646151 KinEng   = 0.638394 Lx       = 24.725762 
Ly       = 24.725762 Lz       = 24.725762 Density  = 1.013238 
Volume   = 15116.423717 
---------------- Step 12340000 ----- CPU =   5883.5988 (sec) ----------------
Time     = 61700000.000000 Temp     = 214.241795 Press    = 1312.827671 
PotEng   = -10.635867 KinEng   = 0.637367 Lx       = 24.708440 
Ly       = 24.708440 Lz       = 24.708440 Density  = 1.015370 
Volume   = 15084.676231 
---------------- Step 12350000 ----- CPU =   5889.5367 (sec) ----------------
Time     = 61750000.000000 Temp     = 202.090860 Press    = 1079.965030 
PotEng   = -10.623589 KinEng   = 0.601218 Lx       = 24.680678 
Ly       = 24.680678 Lz       = 24.680678 Density  = 1.018801 
Volume   = 15033.886527 
---------------- Step 12360000 ----- CPU =   5895.5100 (sec) ----------------
Time     = 61800000.000000 Temp     = 201.834809 Press    = 549.221591 
PotEng   = -10.632714 KinEng   = 0.600456 Lx       = 24.740813 
Ly       = 24.740813 Lz       = 24.740813 Density  = 1.011390 
Volume   = 15144.044470 
---------------- Step 12370000 ----- CPU =   5901.4779 (sec) ----------------
Time     = 61850000.000000 Temp     = 207.574131 Press    = 175.747268 
PotEng   = -10.681567 KinEng   = 0.617531 Lx       = 24.706802 
Ly       = 24.706802 Lz       = 24.706802 Density  = 1.015573 
Volume   = 15081.675273 
---------------- Step 12380000 ----- CPU =   5907.5928 (sec) ----------------
Time     = 61900000.000000 Temp     = 209.597768 Press    = -93.401910 
PotEng   = -10.633199 KinEng   = 0.623551 Lx       = 24.717625 
Ly       = 24.717625 Lz       = 24.717625 Density  = 1.014239 
Volume   = 15101.504599 
---------------- Step 12390000 ----- CPU =   5913.7320 (sec) ----------------
Time     = 61950000.000000 Temp     = 223.067501 Press    = 1007.129496 
PotEng   = -10.692336 KinEng   = 0.663623 Lx       = 24.676618 
Ly       = 24.676618 Lz       = 24.676618 Density  = 1.019304 
Volume   = 15026.468877 
---------------- Step 12400000 ----- CPU =   5919.6130 (sec) ----------------
Time     = 62000000.000000 Temp     = 210.425504 Press    = 292.847211 
PotEng   = -10.709048 KinEng   = 0.626013 Lx       = 24.836957 
Ly       = 24.836957 Lz       = 24.836957 Density  = 0.999690 
Volume   = 15321.284005 
---------------- Step 12410000 ----- CPU =   5925.6492 (sec) ----------------
Time     = 62050000.000000 Temp     = 224.672178 Press    = 2049.936831 
PotEng   = -10.676518 KinEng   = 0.668397 Lx       = 24.656307 
Ly       = 24.656307 Lz       = 24.656307 Density  = 1.021825 
Volume   = 14989.394419 
---------------- Step 12420000 ----- CPU =   5931.5572 (sec) ----------------
Time     = 62100000.000000 Temp     = 218.604266 Press    = 820.351158 
PotEng   = -10.650299 KinEng   = 0.650345 Lx       = 24.665228 
Ly       = 24.665228 Lz       = 24.665228 Density  = 1.020716 
Volume   = 15005.671160 
---------------- Step 12430000 ----- CPU =   5937.5849 (sec) ----------------
Time     = 62150000.000000 Temp     = 203.451339 Press    = 2142.400055 
PotEng   = -10.646323 KinEng   = 0.605265 Lx       = 24.589557 
Ly       = 24.589557 Lz       = 24.589557 Density  = 1.030169 
Volume   = 14867.984673 
---------------- Step 12440000 ----- CPU =   5943.5794 (sec) ----------------
Time     = 62200000.000000 Temp     = 208.966093 Press    = 507.936943 
PotEng   = -10.646311 KinEng   = 0.621672 Lx       = 24.684143 
Ly       = 24.684143 Lz       = 24.684143 Density  = 1.018372 
Volume   = 15040.219775 
---------------- Step 12450000 ----- CPU =   5949.5819 (sec) ----------------
Time     = 62250000.000000 Temp     = 203.943650 Press    = 369.239809 
PotEng   = -10.614928 KinEng   = 0.606730 Lx       = 24.746112 
Ly       = 24.746112 Lz       = 24.746112 Density  = 1.010740 
Volume   = 15153.778141 
---------------- Step 12460000 ----- CPU =   5955.5553 (sec) ----------------
Time     = 62300000.000000 Temp     = 207.395658 Press    = 1531.266571 
PotEng   = -10.645076 KinEng   = 0.617000 Lx       = 24.720365 
Ly       = 24.720365 Lz       = 24.720365 Density  = 1.013902 
Volume   = 15106.527493 
---------------- Step 12470000 ----- CPU =   5961.6550 (sec) ----------------
Time     = 62350000.000000 Temp     = 204.251500 Press    = 1693.095676 
PotEng   = -10.640830 KinEng   = 0.607646 Lx       = 24.627639 
Ly       = 24.627639 Lz       = 24.627639 Density  = 1.025397 
Volume   = 14937.170768 
---------------- Step 12480000 ----- CPU =   5967.7699 (sec) ----------------
Time     = 62400000.000000 Temp     = 203.262527 Press    = 989.779861 
PotEng   = -10.651675 KinEng   = 0.604704 Lx       = 24.630172 
Ly       = 24.630172 Lz       = 24.630172 Density  = 1.025081 
Volume   = 14941.779053 
---------------- Step 12490000 ----- CPU =   5973.8222 (sec) ----------------
Time     = 62450000.000000 Temp     = 206.118140 Press    = 202.955447 
PotEng   = -10.620307 KinEng   = 0.613199 Lx       = 24.576845 
Ly       = 24.576845 Lz       = 24.576845 Density  = 1.031768 
Volume   = 14844.937616 
---------------- Step 12500000 ----- CPU =   5979.8744 (sec) ----------------
Time     = 62500000.000000 Temp     = 214.602315 Press    = 1324.361414 
PotEng   = -10.582001 KinEng   = 0.638439 Lx       = 24.614554 
Ly       = 24.614554 Lz       = 24.614554 Density  = 1.027033 
Volume   = 14913.374255 
Loop time of 5979.87 on 6 procs for 10000000 steps with 512 atoms

Performance: 722.423 ns/day, 0.033 hours/ns, 1672.276 timesteps/s
96.5% CPU use with 6 MPI tasks x no OpenMP threads

MPI task timing breakdown:
Section |  min time  |  avg time  |  max time  |%varavg| %total
---------------------------------------------------------------
Pair    | 4902.7     | 4977.7     | 5180.1     | 136.3 | 83.24
Neigh   | 117.39     | 119.12     | 125.08     |  25.3 |  1.99
Comm    | 539.95     | 748.55     | 822.76     | 361.2 | 12.52
Output  | 0.035145   | 0.058433   | 0.17235    |  21.1 |  0.00
Modify  | 108.28     | 110.07     | 111.67     |  11.7 |  1.84
Other   |            | 24.36      |            |       |  0.41

Nlocal:    85.3333 ave 89 max 80 min
Histogram: 1 0 1 0 0 0 0 3 0 1
Nghost:    575.667 ave 590 max 566 min
Histogram: 1 0 2 0 2 0 0 0 0 1
Neighs:    0 ave 0 max 0 min
Histogram: 6 0 0 0 0 0 0 0 0 0
FullNghs:  2896.67 ave 3036 max 2693 min
Histogram: 1 1 0 0 0 0 1 0 1 2

Total # of neighbors = 17380
Ave neighs/atom = 33.9453
Neighbor list builds = 506386
Dangerous builds = 0
System init for write_data ...
Total wall time: 2:04:19
