LAMMPS (4 Jan 2019)
Reading data file ...
  orthogonal box = (0.0191589 0.0191589 0.0191589) to (24.8158 24.8158 24.8158)
  1 by 2 by 3 MPI processor grid
  reading atoms ...
  512 atoms
  reading velocities ...
  512 velocities
Reading potential file WT_ML-BOP.tersoff with DATE: 2018-05-25
Neighbor list info ...
  update every 1 steps, delay 0 steps, check yes
  max neighbors/atom: 2000, page size: 100000
  master list distance cutoff = 5.55327
  ghost atom cutoff = 5.55327
  1 neighbor lists, perpetual/occasional/extra = 1 0 0
  (1) pair tersoff, perpetual
      attributes: full, newton on
      pair build: full/nsq
      stencil: none
      bin: none
Setting up Verlet run ...
  Unit style    : real
  Current step  : 0
  Time step     : 5
Per MPI rank memory allocation (min/avg/max) = 2.685 | 2.687 | 2.689 Mbytes
---------------- Step        0 ----- CPU =      0.0000 (sec) ----------------
Time     = 0.000000 Temp     = 294.450891 Press    = 562.722559 
PotEng   = -8.494318 KinEng   = 0.875988 Lx       = 24.796682 
Ly       = 24.796682 Lz       = 24.796682 Density  = 1.004569 
Volume   = 15246.871242 
---------------- Step    10000 ----- CPU =      6.2629 (sec) ----------------
Time     = 50000.000000 Temp     = 276.430061 Press    = 2256.519779 
PotEng   = -8.619784 KinEng   = 0.822376 Lx       = 24.244349 
Ly       = 24.244349 Lz       = 24.244349 Density  = 1.074803 
Volume   = 14250.548454 
---------------- Step    20000 ----- CPU =     12.5243 (sec) ----------------
Time     = 100000.000000 Temp     = 277.584931 Press    = 841.249967 
PotEng   = -8.622604 KinEng   = 0.825812 Lx       = 24.444125 
Ly       = 24.444125 Lz       = 24.444125 Density  = 1.048666 
Volume   = 14605.737949 
---------------- Step    30000 ----- CPU =     18.6964 (sec) ----------------
Time     = 150000.000000 Temp     = 274.795103 Press    = 2448.897184 
PotEng   = -8.597288 KinEng   = 0.817512 Lx       = 24.393189 
Ly       = 24.393189 Lz       = 24.393189 Density  = 1.055249 
Volume   = 14514.621757 
---------------- Step    40000 ----- CPU =     24.9152 (sec) ----------------
Time     = 200000.000000 Temp     = 274.597114 Press    = 777.370444 
PotEng   = -8.542083 KinEng   = 0.816923 Lx       = 24.429232 
Ly       = 24.429232 Lz       = 24.429232 Density  = 1.050585 
Volume   = 14579.056785 
---------------- Step    50000 ----- CPU =     31.0506 (sec) ----------------
Time     = 250000.000000 Temp     = 265.091929 Press    = 1651.966187 
PotEng   = -8.561409 KinEng   = 0.788645 Lx       = 24.389866 
Ly       = 24.389866 Lz       = 24.389866 Density  = 1.055680 
Volume   = 14508.691174 
---------------- Step    60000 ----- CPU =     37.1888 (sec) ----------------
Time     = 300000.000000 Temp     = 276.178113 Press    = 48.140074 
PotEng   = -8.625298 KinEng   = 0.821627 Lx       = 24.488008 
Ly       = 24.488008 Lz       = 24.488008 Density  = 1.043038 
Volume   = 14684.540648 
---------------- Step    70000 ----- CPU =     43.2408 (sec) ----------------
Time     = 350000.000000 Temp     = 276.400651 Press    = 2280.150898 
PotEng   = -8.566613 KinEng   = 0.822289 Lx       = 24.408073 
Ly       = 24.408073 Lz       = 24.408073 Density  = 1.053319 
Volume   = 14541.207825 
---------------- Step    80000 ----- CPU =     49.4493 (sec) ----------------
Time     = 400000.000000 Temp     = 272.153091 Press    = 1716.140571 
PotEng   = -8.597055 KinEng   = 0.809652 Lx       = 24.410718 
Ly       = 24.410718 Lz       = 24.410718 Density  = 1.052977 
Volume   = 14545.936238 
---------------- Step    90000 ----- CPU =     55.5395 (sec) ----------------
Time     = 450000.000000 Temp     = 284.522601 Press    = 1285.532315 
PotEng   = -8.558673 KinEng   = 0.846451 Lx       = 24.541327 
Ly       = 24.541327 Lz       = 24.541327 Density  = 1.036254 
Volume   = 14780.669318 
---------------- Step   100000 ----- CPU =     61.6723 (sec) ----------------
Time     = 500000.000000 Temp     = 262.464254 Press    = -223.218826 
PotEng   = -8.625601 KinEng   = 0.780828 Lx       = 24.555251 
Ly       = 24.555251 Lz       = 24.555251 Density  = 1.034493 
Volume   = 14805.842157 
---------------- Step   110000 ----- CPU =     67.8127 (sec) ----------------
Time     = 550000.000000 Temp     = 280.332512 Press    = 1619.211436 
PotEng   = -8.576919 KinEng   = 0.833986 Lx       = 24.349239 
Ly       = 24.349239 Lz       = 24.349239 Density  = 1.060973 
Volume   = 14436.308557 
---------------- Step   120000 ----- CPU =     73.9767 (sec) ----------------
Time     = 600000.000000 Temp     = 261.068131 Press    = -82.080514 
PotEng   = -8.516779 KinEng   = 0.776675 Lx       = 24.426452 
Ly       = 24.426452 Lz       = 24.426452 Density  = 1.050944 
Volume   = 14574.079884 
---------------- Step   130000 ----- CPU =     80.1521 (sec) ----------------
Time     = 650000.000000 Temp     = 264.988865 Press    = 974.956798 
PotEng   = -8.628284 KinEng   = 0.788339 Lx       = 24.371797 
Ly       = 24.371797 Lz       = 24.371797 Density  = 1.058030 
Volume   = 14476.469405 
---------------- Step   140000 ----- CPU =     86.2241 (sec) ----------------
Time     = 700000.000000 Temp     = 275.932169 Press    = 694.988767 
PotEng   = -8.642985 KinEng   = 0.820895 Lx       = 24.583983 
Ly       = 24.583983 Lz       = 24.583983 Density  = 1.030870 
Volume   = 14857.877088 
---------------- Step   150000 ----- CPU =     92.3216 (sec) ----------------
Time     = 750000.000000 Temp     = 292.998682 Press    = 2534.516448 
PotEng   = -8.534314 KinEng   = 0.871668 Lx       = 24.392665 
Ly       = 24.392665 Lz       = 24.392665 Density  = 1.055317 
Volume   = 14513.687428 
---------------- Step   160000 ----- CPU =     98.4398 (sec) ----------------
Time     = 800000.000000 Temp     = 286.050590 Press    = 2561.976469 
PotEng   = -8.512394 KinEng   = 0.850997 Lx       = 24.381368 
Ly       = 24.381368 Lz       = 24.381368 Density  = 1.056784 
Volume   = 14493.531201 
---------------- Step   170000 ----- CPU =    104.5583 (sec) ----------------
Time     = 850000.000000 Temp     = 281.281927 Press    = -55.781970 
PotEng   = -8.505609 KinEng   = 0.836810 Lx       = 24.485293 
Ly       = 24.485293 Lz       = 24.485293 Density  = 1.043385 
Volume   = 14679.657025 
---------------- Step   180000 ----- CPU =    110.7483 (sec) ----------------
Time     = 900000.000000 Temp     = 275.929976 Press    = 819.113452 
PotEng   = -8.550196 KinEng   = 0.820888 Lx       = 24.437688 
Ly       = 24.437688 Lz       = 24.437688 Density  = 1.049495 
Volume   = 14594.201580 
---------------- Step   190000 ----- CPU =    116.9202 (sec) ----------------
Time     = 950000.000000 Temp     = 287.351422 Press    = 1896.199339 
PotEng   = -8.587745 KinEng   = 0.854867 Lx       = 24.375453 
Ly       = 24.375453 Lz       = 24.375453 Density  = 1.057554 
Volume   = 14482.984675 
---------------- Step   200000 ----- CPU =    123.1072 (sec) ----------------
Time     = 1000000.000000 Temp     = 271.833143 Press    = 1271.991249 
PotEng   = -8.560485 KinEng   = 0.808700 Lx       = 24.424450 
Ly       = 24.424450 Lz       = 24.424450 Density  = 1.051202 
Volume   = 14570.496718 
---------------- Step   210000 ----- CPU =    129.3486 (sec) ----------------
Time     = 1050000.000000 Temp     = 291.497880 Press    = 657.107646 
PotEng   = -8.579816 KinEng   = 0.867203 Lx       = 24.637298 
Ly       = 24.637298 Lz       = 24.637298 Density  = 1.024192 
Volume   = 14954.752387 
---------------- Step   220000 ----- CPU =    135.3941 (sec) ----------------
Time     = 1100000.000000 Temp     = 273.004090 Press    = 529.980482 
PotEng   = -8.591680 KinEng   = 0.812184 Lx       = 24.491478 
Ly       = 24.491478 Lz       = 24.491478 Density  = 1.042595 
Volume   = 14690.783785 
---------------- Step   230000 ----- CPU =    141.5965 (sec) ----------------
Time     = 1150000.000000 Temp     = 278.187872 Press    = 691.761221 
PotEng   = -8.513726 KinEng   = 0.827606 Lx       = 24.488108 
Ly       = 24.488108 Lz       = 24.488108 Density  = 1.043025 
Volume   = 14684.720251 
---------------- Step   240000 ----- CPU =    147.6144 (sec) ----------------
Time     = 1200000.000000 Temp     = 271.928493 Press    = -757.838003 
PotEng   = -8.555342 KinEng   = 0.808984 Lx       = 24.455120 
Ly       = 24.455120 Lz       = 24.455120 Density  = 1.047252 
Volume   = 14625.454921 
---------------- Step   250000 ----- CPU =    153.7245 (sec) ----------------
Time     = 1250000.000000 Temp     = 288.172749 Press    = 630.428017 
PotEng   = -8.583111 KinEng   = 0.857311 Lx       = 24.421365 
Ly       = 24.421365 Lz       = 24.421365 Density  = 1.051600 
Volume   = 14564.977783 
---------------- Step   260000 ----- CPU =    159.8977 (sec) ----------------
Time     = 1300000.000000 Temp     = 260.375384 Press    = 1852.672078 
PotEng   = -8.496868 KinEng   = 0.774614 Lx       = 24.462373 
Ly       = 24.462373 Lz       = 24.462373 Density  = 1.046321 
Volume   = 14638.472694 
---------------- Step   270000 ----- CPU =    166.0236 (sec) ----------------
Time     = 1350000.000000 Temp     = 275.806266 Press    = 1747.226156 
PotEng   = -8.513918 KinEng   = 0.820520 Lx       = 24.460907 
Ly       = 24.460907 Lz       = 24.460907 Density  = 1.046509 
Volume   = 14635.840310 
---------------- Step   280000 ----- CPU =    172.1879 (sec) ----------------
Time     = 1400000.000000 Temp     = 280.176202 Press    = 1940.373069 
PotEng   = -8.540322 KinEng   = 0.833521 Lx       = 24.275763 
Ly       = 24.275763 Lz       = 24.275763 Density  = 1.070636 
Volume   = 14306.014465 
---------------- Step   290000 ----- CPU =    178.4051 (sec) ----------------
Time     = 1450000.000000 Temp     = 284.522956 Press    = -145.034359 
PotEng   = -8.576103 KinEng   = 0.846452 Lx       = 24.426744 
Ly       = 24.426744 Lz       = 24.426744 Density  = 1.050906 
Volume   = 14574.604167 
---------------- Step   300000 ----- CPU =    184.6566 (sec) ----------------
Time     = 1500000.000000 Temp     = 285.693701 Press    = 574.334857 
PotEng   = -8.553347 KinEng   = 0.849935 Lx       = 24.492241 
Ly       = 24.492241 Lz       = 24.492241 Density  = 1.042497 
Volume   = 14692.157469 
---------------- Step   310000 ----- CPU =    190.7576 (sec) ----------------
Time     = 1550000.000000 Temp     = 291.655657 Press    = 684.368461 
PotEng   = -8.553667 KinEng   = 0.867672 Lx       = 24.554027 
Ly       = 24.554027 Lz       = 24.554027 Density  = 1.034647 
Volume   = 14803.628643 
---------------- Step   320000 ----- CPU =    196.8913 (sec) ----------------
Time     = 1600000.000000 Temp     = 276.029585 Press    = -431.563250 
PotEng   = -8.573735 KinEng   = 0.821185 Lx       = 24.564758 
Ly       = 24.564758 Lz       = 24.564758 Density  = 1.033292 
Volume   = 14823.047238 
---------------- Step   330000 ----- CPU =    203.0416 (sec) ----------------
Time     = 1650000.000000 Temp     = 283.329653 Press    = 1116.108344 
PotEng   = -8.536323 KinEng   = 0.842902 Lx       = 24.473530 
Ly       = 24.473530 Lz       = 24.473530 Density  = 1.044890 
Volume   = 14658.510197 
---------------- Step   340000 ----- CPU =    209.2797 (sec) ----------------
Time     = 1700000.000000 Temp     = 263.495416 Press    = 1268.732813 
PotEng   = -8.558061 KinEng   = 0.783896 Lx       = 24.615241 
Ly       = 24.615241 Lz       = 24.615241 Density  = 1.026947 
Volume   = 14914.623614 
---------------- Step   350000 ----- CPU =    215.4558 (sec) ----------------
Time     = 1750000.000000 Temp     = 286.861309 Press    = 1155.435058 
PotEng   = -8.463265 KinEng   = 0.853409 Lx       = 24.377371 
Ly       = 24.377371 Lz       = 24.377371 Density  = 1.057304 
Volume   = 14486.403519 
---------------- Step   360000 ----- CPU =    221.5996 (sec) ----------------
Time     = 1800000.000000 Temp     = 274.765369 Press    = 251.537180 
PotEng   = -8.649069 KinEng   = 0.817424 Lx       = 24.709031 
Ly       = 24.709031 Lz       = 24.709031 Density  = 1.015298 
Volume   = 15085.758669 
---------------- Step   370000 ----- CPU =    227.7895 (sec) ----------------
Time     = 1850000.000000 Temp     = 272.211326 Press    = 1226.672318 
PotEng   = -8.507367 KinEng   = 0.809825 Lx       = 24.333347 
Ly       = 24.333347 Lz       = 24.333347 Density  = 1.063053 
Volume   = 14408.062158 
---------------- Step   380000 ----- CPU =    233.9577 (sec) ----------------
Time     = 1900000.000000 Temp     = 279.256299 Press    = 1806.934175 
PotEng   = -8.534854 KinEng   = 0.830784 Lx       = 24.424819 
Ly       = 24.424819 Lz       = 24.424819 Density  = 1.051154 
Volume   = 14571.158169 
---------------- Step   390000 ----- CPU =    240.1911 (sec) ----------------
Time     = 1950000.000000 Temp     = 275.821607 Press    = 737.621515 
PotEng   = -8.576256 KinEng   = 0.820566 Lx       = 24.456620 
Ly       = 24.456620 Lz       = 24.456620 Density  = 1.047059 
Volume   = 14628.146326 
---------------- Step   400000 ----- CPU =    246.4082 (sec) ----------------
Time     = 2000000.000000 Temp     = 295.352150 Press    = 1103.489158 
PotEng   = -8.582280 KinEng   = 0.878669 Lx       = 24.488863 
Ly       = 24.488863 Lz       = 24.488863 Density  = 1.042929 
Volume   = 14686.079422 
---------------- Step   410000 ----- CPU =    252.4329 (sec) ----------------
Time     = 2050000.000000 Temp     = 277.297389 Press    = 1061.469287 
PotEng   = -8.625410 KinEng   = 0.824956 Lx       = 24.517861 
Ly       = 24.517861 Lz       = 24.517861 Density  = 1.039233 
Volume   = 14738.311803 
---------------- Step   420000 ----- CPU =    258.6573 (sec) ----------------
Time     = 2100000.000000 Temp     = 288.547536 Press    = 190.951009 
PotEng   = -8.508171 KinEng   = 0.858426 Lx       = 24.590225 
Ly       = 24.590225 Lz       = 24.590225 Density  = 1.030085 
Volume   = 14869.197509 
---------------- Step   430000 ----- CPU =    264.7368 (sec) ----------------
Time     = 2150000.000000 Temp     = 291.813296 Press    = 1109.312655 
PotEng   = -8.632924 KinEng   = 0.868141 Lx       = 24.336770 
Ly       = 24.336770 Lz       = 24.336770 Density  = 1.062605 
Volume   = 14414.143224 
---------------- Step   440000 ----- CPU =    271.0122 (sec) ----------------
Time     = 2200000.000000 Temp     = 281.203556 Press    = 1089.676760 
PotEng   = -8.612665 KinEng   = 0.836577 Lx       = 24.498148 
Ly       = 24.498148 Lz       = 24.498148 Density  = 1.041743 
Volume   = 14702.790870 
---------------- Step   450000 ----- CPU =    277.1820 (sec) ----------------
Time     = 2250000.000000 Temp     = 271.311288 Press    = 1771.770827 
PotEng   = -8.610356 KinEng   = 0.807148 Lx       = 24.235445 
Ly       = 24.235445 Lz       = 24.235445 Density  = 1.075988 
Volume   = 14234.852657 
---------------- Step   460000 ----- CPU =    283.2822 (sec) ----------------
Time     = 2300000.000000 Temp     = 266.408613 Press    = 265.869908 
PotEng   = -8.590973 KinEng   = 0.792562 Lx       = 24.437119 
Ly       = 24.437119 Lz       = 24.437119 Density  = 1.049568 
Volume   = 14593.183240 
---------------- Step   470000 ----- CPU =    289.3900 (sec) ----------------
Time     = 2350000.000000 Temp     = 270.751673 Press    = 1262.149682 
PotEng   = -8.564171 KinEng   = 0.805483 Lx       = 24.518206 
Ly       = 24.518206 Lz       = 24.518206 Density  = 1.039189 
Volume   = 14738.934402 
---------------- Step   480000 ----- CPU =    295.5415 (sec) ----------------
Time     = 2400000.000000 Temp     = 263.918070 Press    = 520.413596 
PotEng   = -8.596240 KinEng   = 0.785153 Lx       = 24.447204 
Ly       = 24.447204 Lz       = 24.447204 Density  = 1.048269 
Volume   = 14611.257007 
---------------- Step   490000 ----- CPU =    301.7768 (sec) ----------------
Time     = 2450000.000000 Temp     = 271.077946 Press    = 1555.398461 
PotEng   = -8.528552 KinEng   = 0.806454 Lx       = 24.443689 
Ly       = 24.443689 Lz       = 24.443689 Density  = 1.048722 
Volume   = 14604.955887 
---------------- Step   500000 ----- CPU =    307.9401 (sec) ----------------
Time     = 2500000.000000 Temp     = 275.298945 Press    = 481.831331 
PotEng   = -8.590807 KinEng   = 0.819011 Lx       = 24.472095 
Ly       = 24.472095 Lz       = 24.472095 Density  = 1.045074 
Volume   = 14655.932048 
---------------- Step   510000 ----- CPU =    314.1230 (sec) ----------------
Time     = 2550000.000000 Temp     = 288.801181 Press    = 1021.817942 
PotEng   = -8.543873 KinEng   = 0.859180 Lx       = 24.378292 
Ly       = 24.378292 Lz       = 24.378292 Density  = 1.057184 
Volume   = 14488.046100 
---------------- Step   520000 ----- CPU =    320.3210 (sec) ----------------
Time     = 2600000.000000 Temp     = 297.124424 Press    = 1649.685059 
PotEng   = -8.569583 KinEng   = 0.883942 Lx       = 24.333924 
Ly       = 24.333924 Lz       = 24.333924 Density  = 1.062977 
Volume   = 14409.086945 
---------------- Step   530000 ----- CPU =    326.3821 (sec) ----------------
Time     = 2650000.000000 Temp     = 277.664442 Press    = 1736.778832 
PotEng   = -8.583400 KinEng   = 0.826048 Lx       = 24.427067 
Ly       = 24.427067 Lz       = 24.427067 Density  = 1.050864 
Volume   = 14575.181834 
---------------- Step   540000 ----- CPU =    332.5798 (sec) ----------------
Time     = 2700000.000000 Temp     = 279.543509 Press    = 505.193227 
PotEng   = -8.559547 KinEng   = 0.831639 Lx       = 24.534003 
Ly       = 24.534003 Lz       = 24.534003 Density  = 1.037183 
Volume   = 14767.440188 
---------------- Step   550000 ----- CPU =    338.7355 (sec) ----------------
Time     = 2750000.000000 Temp     = 291.898082 Press    = 494.063568 
PotEng   = -8.460756 KinEng   = 0.868393 Lx       = 24.356057 
Ly       = 24.356057 Lz       = 24.356057 Density  = 1.060082 
Volume   = 14448.440009 
---------------- Step   560000 ----- CPU =    344.8453 (sec) ----------------
Time     = 2800000.000000 Temp     = 271.883578 Press    = 964.283509 
PotEng   = -8.585761 KinEng   = 0.808850 Lx       = 24.599197 
Ly       = 24.599197 Lz       = 24.599197 Density  = 1.028958 
Volume   = 14885.478939 
---------------- Step   570000 ----- CPU =    350.9769 (sec) ----------------
Time     = 2850000.000000 Temp     = 277.937237 Press    = 1249.518327 
PotEng   = -8.535538 KinEng   = 0.826860 Lx       = 24.529476 
Ly       = 24.529476 Lz       = 24.529476 Density  = 1.037757 
Volume   = 14759.267851 
---------------- Step   580000 ----- CPU =    356.9742 (sec) ----------------
Time     = 2900000.000000 Temp     = 277.328518 Press    = 156.039460 
PotEng   = -8.560459 KinEng   = 0.825049 Lx       = 24.544766 
Ly       = 24.544766 Lz       = 24.544766 Density  = 1.035819 
Volume   = 14786.884723 
---------------- Step   590000 ----- CPU =    363.1466 (sec) ----------------
Time     = 2950000.000000 Temp     = 263.870210 Press    = 1684.956622 
PotEng   = -8.573275 KinEng   = 0.785011 Lx       = 24.451654 
Ly       = 24.451654 Lz       = 24.451654 Density  = 1.047697 
Volume   = 14619.237571 
---------------- Step   600000 ----- CPU =    369.2412 (sec) ----------------
Time     = 3000000.000000 Temp     = 293.737873 Press    = 1363.507813 
PotEng   = -8.514067 KinEng   = 0.873867 Lx       = 24.364625 
Ly       = 24.364625 Lz       = 24.364625 Density  = 1.058964 
Volume   = 14463.692658 
---------------- Step   610000 ----- CPU =    375.3158 (sec) ----------------
Time     = 3050000.000000 Temp     = 275.991563 Press    = 1107.184296 
PotEng   = -8.587751 KinEng   = 0.821072 Lx       = 24.571649 
Ly       = 24.571649 Lz       = 24.571649 Density  = 1.032423 
Volume   = 14835.525394 
---------------- Step   620000 ----- CPU =    381.4910 (sec) ----------------
Time     = 3100000.000000 Temp     = 283.839298 Press    = 269.866021 
PotEng   = -8.606214 KinEng   = 0.844419 Lx       = 24.409986 
Ly       = 24.409986 Lz       = 24.409986 Density  = 1.053072 
Volume   = 14544.627901 
---------------- Step   630000 ----- CPU =    387.6239 (sec) ----------------
Time     = 3150000.000000 Temp     = 289.316868 Press    = 1173.933733 
PotEng   = -8.530861 KinEng   = 0.860714 Lx       = 24.456295 
Ly       = 24.456295 Lz       = 24.456295 Density  = 1.047101 
Volume   = 14627.564006 
---------------- Step   640000 ----- CPU =    393.7696 (sec) ----------------
Time     = 3200000.000000 Temp     = 286.836808 Press    = 1732.305741 
PotEng   = -8.590449 KinEng   = 0.853336 Lx       = 24.588926 
Ly       = 24.588926 Lz       = 24.588926 Density  = 1.030248 
Volume   = 14866.840045 
---------------- Step   650000 ----- CPU =    399.9299 (sec) ----------------
Time     = 3250000.000000 Temp     = 275.106550 Press    = 1143.944299 
PotEng   = -8.634847 KinEng   = 0.818439 Lx       = 24.425094 
Ly       = 24.425094 Lz       = 24.425094 Density  = 1.051119 
Volume   = 14571.650716 
---------------- Step   660000 ----- CPU =    406.1126 (sec) ----------------
Time     = 3300000.000000 Temp     = 283.329170 Press    = 923.822961 
PotEng   = -8.587595 KinEng   = 0.842901 Lx       = 24.423594 
Ly       = 24.423594 Lz       = 24.423594 Density  = 1.051312 
Volume   = 14568.966384 
---------------- Step   670000 ----- CPU =    412.3162 (sec) ----------------
Time     = 3350000.000000 Temp     = 286.469039 Press    = 1732.966215 
PotEng   = -8.655985 KinEng   = 0.852242 Lx       = 24.478655 
Ly       = 24.478655 Lz       = 24.478655 Density  = 1.044234 
Volume   = 14667.720947 
---------------- Step   680000 ----- CPU =    418.3860 (sec) ----------------
Time     = 3400000.000000 Temp     = 263.717749 Press    = 182.616194 
PotEng   = -8.528899 KinEng   = 0.784557 Lx       = 24.365250 
Ly       = 24.365250 Lz       = 24.365250 Density  = 1.058883 
Volume   = 14464.805185 
---------------- Step   690000 ----- CPU =    424.5960 (sec) ----------------
Time     = 3450000.000000 Temp     = 291.236877 Press    = 708.476838 
PotEng   = -8.593498 KinEng   = 0.866426 Lx       = 24.468487 
Ly       = 24.468487 Lz       = 24.468487 Density  = 1.045536 
Volume   = 14649.451821 
---------------- Step   700000 ----- CPU =    430.6526 (sec) ----------------
Time     = 3500000.000000 Temp     = 275.369079 Press    = 710.746748 
PotEng   = -8.576646 KinEng   = 0.819220 Lx       = 24.523069 
Ly       = 24.523069 Lz       = 24.523069 Density  = 1.038571 
Volume   = 14747.705599 
---------------- Step   710000 ----- CPU =    436.8842 (sec) ----------------
Time     = 3550000.000000 Temp     = 283.541432 Press    = 762.715767 
PotEng   = -8.562741 KinEng   = 0.843532 Lx       = 24.378062 
Ly       = 24.378062 Lz       = 24.378062 Density  = 1.057214 
Volume   = 14487.636917 
---------------- Step   720000 ----- CPU =    442.9559 (sec) ----------------
Time     = 3600000.000000 Temp     = 273.916565 Press    = 1560.371446 
PotEng   = -8.483613 KinEng   = 0.814899 Lx       = 24.501742 
Ly       = 24.501742 Lz       = 24.501742 Density  = 1.041285 
Volume   = 14709.261598 
---------------- Step   730000 ----- CPU =    449.2164 (sec) ----------------
Time     = 3650000.000000 Temp     = 292.786295 Press    = 848.596964 
PotEng   = -8.530198 KinEng   = 0.871036 Lx       = 24.502140 
Ly       = 24.502140 Lz       = 24.502140 Density  = 1.041234 
Volume   = 14709.978319 
---------------- Step   740000 ----- CPU =    455.4538 (sec) ----------------
Time     = 3700000.000000 Temp     = 270.255524 Press    = 435.730715 
PotEng   = -8.566545 KinEng   = 0.804007 Lx       = 24.521152 
Ly       = 24.521152 Lz       = 24.521152 Density  = 1.038814 
Volume   = 14744.246892 
---------------- Step   750000 ----- CPU =    461.6814 (sec) ----------------
Time     = 3750000.000000 Temp     = 279.799191 Press    = 1616.185453 
PotEng   = -8.537660 KinEng   = 0.832399 Lx       = 24.394732 
Ly       = 24.394732 Lz       = 24.394732 Density  = 1.055048 
Volume   = 14517.376697 
---------------- Step   760000 ----- CPU =    467.7121 (sec) ----------------
Time     = 3800000.000000 Temp     = 286.219831 Press    = 81.951354 
PotEng   = -8.623691 KinEng   = 0.851501 Lx       = 24.588330 
Ly       = 24.588330 Lz       = 24.588330 Density  = 1.030323 
Volume   = 14865.759270 
---------------- Step   770000 ----- CPU =    473.8601 (sec) ----------------
Time     = 3850000.000000 Temp     = 281.140664 Press    = 906.495263 
PotEng   = -8.552562 KinEng   = 0.836390 Lx       = 24.366539 
Ly       = 24.366539 Lz       = 24.366539 Density  = 1.058715 
Volume   = 14467.101326 
---------------- Step   780000 ----- CPU =    480.0295 (sec) ----------------
Time     = 3900000.000000 Temp     = 284.685539 Press    = 848.715351 
PotEng   = -8.585939 KinEng   = 0.846936 Lx       = 24.523602 
Ly       = 24.523602 Lz       = 24.523602 Density  = 1.038503 
Volume   = 14748.667397 
---------------- Step   790000 ----- CPU =    486.2525 (sec) ----------------
Time     = 3950000.000000 Temp     = 277.137833 Press    = 1079.176917 
PotEng   = -8.537024 KinEng   = 0.824482 Lx       = 24.603407 
Ly       = 24.603407 Lz       = 24.603407 Density  = 1.028430 
Volume   = 14893.122230 
---------------- Step   800000 ----- CPU =    492.4122 (sec) ----------------
Time     = 4000000.000000 Temp     = 283.947056 Press    = 540.095300 
PotEng   = -8.514227 KinEng   = 0.844739 Lx       = 24.493688 
Ly       = 24.493688 Lz       = 24.493688 Density  = 1.042313 
Volume   = 14694.761601 
---------------- Step   810000 ----- CPU =    498.5387 (sec) ----------------
Time     = 4050000.000000 Temp     = 271.037290 Press    = -36.830477 
PotEng   = -8.539405 KinEng   = 0.806333 Lx       = 24.628745 
Ly       = 24.628745 Lz       = 24.628745 Density  = 1.025259 
Volume   = 14939.183522 
---------------- Step   820000 ----- CPU =    504.6729 (sec) ----------------
Time     = 4100000.000000 Temp     = 269.216029 Press    = 1082.426389 
PotEng   = -8.613714 KinEng   = 0.800914 Lx       = 24.573601 
Ly       = 24.573601 Lz       = 24.573601 Density  = 1.032177 
Volume   = 14839.060430 
---------------- Step   830000 ----- CPU =    510.8694 (sec) ----------------
Time     = 4150000.000000 Temp     = 274.434572 Press    = 592.880801 
PotEng   = -8.545398 KinEng   = 0.816440 Lx       = 24.458494 
Ly       = 24.458494 Lz       = 24.458494 Density  = 1.046819 
Volume   = 14631.508960 
---------------- Step   840000 ----- CPU =    517.0173 (sec) ----------------
Time     = 4200000.000000 Temp     = 279.098730 Press    = 646.467175 
PotEng   = -8.631018 KinEng   = 0.830315 Lx       = 24.427135 
Ly       = 24.427135 Lz       = 24.427135 Density  = 1.050855 
Volume   = 14575.302623 
---------------- Step   850000 ----- CPU =    523.1091 (sec) ----------------
Time     = 4250000.000000 Temp     = 281.850269 Press    = 2185.499569 
PotEng   = -8.486948 KinEng   = 0.838501 Lx       = 24.470228 
Ly       = 24.470228 Lz       = 24.470228 Density  = 1.045313 
Volume   = 14652.578433 
---------------- Step   860000 ----- CPU =    529.2886 (sec) ----------------
Time     = 4300000.000000 Temp     = 284.639814 Press    = 790.771035 
PotEng   = -8.542126 KinEng   = 0.846800 Lx       = 24.498609 
Ly       = 24.498609 Lz       = 24.498609 Density  = 1.041685 
Volume   = 14703.620743 
---------------- Step   870000 ----- CPU =    535.4054 (sec) ----------------
Time     = 4350000.000000 Temp     = 280.168060 Press    = 1005.528414 
PotEng   = -8.490465 KinEng   = 0.833497 Lx       = 24.477801 
Ly       = 24.477801 Lz       = 24.477801 Density  = 1.044343 
Volume   = 14666.186836 
---------------- Step   880000 ----- CPU =    541.6208 (sec) ----------------
Time     = 4400000.000000 Temp     = 262.642870 Press    = 1447.157561 
PotEng   = -8.536795 KinEng   = 0.781359 Lx       = 24.340197 
Ly       = 24.340197 Lz       = 24.340197 Density  = 1.062156 
Volume   = 14420.233373 
---------------- Step   890000 ----- CPU =    547.7142 (sec) ----------------
Time     = 4450000.000000 Temp     = 266.521746 Press    = 1917.669474 
PotEng   = -8.542733 KinEng   = 0.792899 Lx       = 24.444789 
Ly       = 24.444789 Lz       = 24.444789 Density  = 1.048580 
Volume   = 14606.927187 
---------------- Step   900000 ----- CPU =    553.8646 (sec) ----------------
Time     = 4500000.000000 Temp     = 275.951331 Press    = 1493.213143 
PotEng   = -8.510874 KinEng   = 0.820952 Lx       = 24.496739 
Ly       = 24.496739 Lz       = 24.496739 Density  = 1.041923 
Volume   = 14700.253721 
---------------- Step   910000 ----- CPU =    559.9814 (sec) ----------------
Time     = 4550000.000000 Temp     = 295.285516 Press    = 310.232150 
PotEng   = -8.517877 KinEng   = 0.878471 Lx       = 24.573600 
Ly       = 24.573600 Lz       = 24.573600 Density  = 1.032177 
Volume   = 14839.058704 
---------------- Step   920000 ----- CPU =    566.1340 (sec) ----------------
Time     = 4600000.000000 Temp     = 289.522805 Press    = 491.946138 
PotEng   = -8.536662 KinEng   = 0.861327 Lx       = 24.484033 
Ly       = 24.484033 Lz       = 24.484033 Density  = 1.043546 
Volume   = 14677.391564 
---------------- Step   930000 ----- CPU =    572.3300 (sec) ----------------
Time     = 4650000.000000 Temp     = 262.882309 Press    = 64.993200 
PotEng   = -8.577977 KinEng   = 0.782072 Lx       = 24.312418 
Ly       = 24.312418 Lz       = 24.312418 Density  = 1.065801 
Volume   = 14370.916811 
---------------- Step   940000 ----- CPU =    578.4844 (sec) ----------------
Time     = 4700000.000000 Temp     = 285.479531 Press    = 1543.828299 
PotEng   = -8.473848 KinEng   = 0.849298 Lx       = 24.374536 
Ly       = 24.374536 Lz       = 24.374536 Density  = 1.057673 
Volume   = 14481.351160 
---------------- Step   950000 ----- CPU =    584.6946 (sec) ----------------
Time     = 4750000.000000 Temp     = 269.066987 Press    = 815.465441 
PotEng   = -8.619916 KinEng   = 0.800471 Lx       = 24.327625 
Ly       = 24.327625 Lz       = 24.327625 Density  = 1.063803 
Volume   = 14397.899257 
---------------- Step   960000 ----- CPU =    590.8795 (sec) ----------------
Time     = 4800000.000000 Temp     = 255.183539 Press    = 1299.500196 
PotEng   = -8.573432 KinEng   = 0.759168 Lx       = 24.462450 
Ly       = 24.462450 Lz       = 24.462450 Density  = 1.046311 
Volume   = 14638.610073 
---------------- Step   970000 ----- CPU =    597.0789 (sec) ----------------
Time     = 4850000.000000 Temp     = 270.795969 Press    = 1793.793680 
PotEng   = -8.598891 KinEng   = 0.805615 Lx       = 24.446880 
Ly       = 24.446880 Lz       = 24.446880 Density  = 1.048311 
Volume   = 14610.676151 
---------------- Step   980000 ----- CPU =    603.4040 (sec) ----------------
Time     = 4900000.000000 Temp     = 299.292135 Press    = 2073.899079 
PotEng   = -8.582483 KinEng   = 0.890391 Lx       = 24.388077 
Ly       = 24.388077 Lz       = 24.388077 Density  = 1.055912 
Volume   = 14505.498742 
---------------- Step   990000 ----- CPU =    609.5055 (sec) ----------------
Time     = 4950000.000000 Temp     = 261.246089 Press    = 94.382297 
PotEng   = -8.504029 KinEng   = 0.777204 Lx       = 24.490187 
Ly       = 24.490187 Lz       = 24.490187 Density  = 1.042760 
Volume   = 14688.461398 
---------------- Step  1000000 ----- CPU =    615.6832 (sec) ----------------
Time     = 5000000.000000 Temp     = 271.051763 Press    = 1273.322564 
PotEng   = -8.565078 KinEng   = 0.806376 Lx       = 24.405854 
Ly       = 24.405854 Lz       = 24.405854 Density  = 1.053607 
Volume   = 14537.243095 
---------------- Step  1010000 ----- CPU =    621.7237 (sec) ----------------
Time     = 5050000.000000 Temp     = 299.937448 Press    = 1257.947927 
PotEng   = -8.584549 KinEng   = 0.892310 Lx       = 24.470643 
Ly       = 24.470643 Lz       = 24.470643 Density  = 1.045260 
Volume   = 14653.324154 
---------------- Step  1020000 ----- CPU =    627.8554 (sec) ----------------
Time     = 5100000.000000 Temp     = 298.124986 Press    = 453.921536 
PotEng   = -8.544111 KinEng   = 0.886918 Lx       = 24.612489 
Ly       = 24.612489 Lz       = 24.612489 Density  = 1.027292 
Volume   = 14909.620954 
---------------- Step  1030000 ----- CPU =    633.8890 (sec) ----------------
Time     = 5150000.000000 Temp     = 288.269302 Press    = 758.517884 
PotEng   = -8.546432 KinEng   = 0.857598 Lx       = 24.484714 
Ly       = 24.484714 Lz       = 24.484714 Density  = 1.043459 
Volume   = 14678.615469 
---------------- Step  1040000 ----- CPU =    639.9911 (sec) ----------------
Time     = 5200000.000000 Temp     = 291.020782 Press    = 1691.300048 
PotEng   = -8.574209 KinEng   = 0.865783 Lx       = 24.301028 
Ly       = 24.301028 Lz       = 24.301028 Density  = 1.067300 
Volume   = 14350.728962 
---------------- Step  1050000 ----- CPU =    646.0961 (sec) ----------------
Time     = 5250000.000000 Temp     = 278.285501 Press    = 1683.732294 
PotEng   = -8.575029 KinEng   = 0.827896 Lx       = 24.407719 
Ly       = 24.407719 Lz       = 24.407719 Density  = 1.053365 
Volume   = 14540.574704 
---------------- Step  1060000 ----- CPU =    652.2196 (sec) ----------------
Time     = 5300000.000000 Temp     = 275.376829 Press    = 1258.735485 
PotEng   = -8.494068 KinEng   = 0.819243 Lx       = 24.366640 
Ly       = 24.366640 Lz       = 24.366640 Density  = 1.058702 
Volume   = 14467.281363 
---------------- Step  1070000 ----- CPU =    658.4753 (sec) ----------------
Time     = 5350000.000000 Temp     = 277.929567 Press    = 891.048283 
PotEng   = -8.581228 KinEng   = 0.826837 Lx       = 24.470461 
Ly       = 24.470461 Lz       = 24.470461 Density  = 1.045283 
Volume   = 14652.997217 
---------------- Step  1080000 ----- CPU =    664.5343 (sec) ----------------
Time     = 5400000.000000 Temp     = 263.810218 Press    = 1089.259983 
PotEng   = -8.556416 KinEng   = 0.784832 Lx       = 24.387043 
Ly       = 24.387043 Lz       = 24.387043 Density  = 1.056047 
Volume   = 14503.654457 
---------------- Step  1090000 ----- CPU =    670.7088 (sec) ----------------
Time     = 5450000.000000 Temp     = 279.095241 Press    = -1463.882913 
PotEng   = -8.563381 KinEng   = 0.830305 Lx       = 24.515666 
Ly       = 24.515666 Lz       = 24.515666 Density  = 1.039512 
Volume   = 14734.353463 
---------------- Step  1100000 ----- CPU =    676.8610 (sec) ----------------
Time     = 5500000.000000 Temp     = 277.690903 Press    = 790.362877 
PotEng   = -8.544099 KinEng   = 0.826127 Lx       = 24.509562 
Ly       = 24.509562 Lz       = 24.509562 Density  = 1.040289 
Volume   = 14723.350138 
---------------- Step  1110000 ----- CPU =    682.9267 (sec) ----------------
Time     = 5550000.000000 Temp     = 286.701744 Press    = 1098.839838 
PotEng   = -8.611148 KinEng   = 0.852934 Lx       = 24.456801 
Ly       = 24.456801 Lz       = 24.456801 Density  = 1.047036 
Volume   = 14628.470873 
---------------- Step  1120000 ----- CPU =    689.0811 (sec) ----------------
Time     = 5600000.000000 Temp     = 297.040615 Press    = 76.490841 
PotEng   = -8.560265 KinEng   = 0.883692 Lx       = 24.476173 
Ly       = 24.476173 Lz       = 24.476173 Density  = 1.044552 
Volume   = 14663.260471 
---------------- Step  1130000 ----- CPU =    695.1857 (sec) ----------------
Time     = 5650000.000000 Temp     = 273.430441 Press    = 1169.626432 
PotEng   = -8.575569 KinEng   = 0.813452 Lx       = 24.615190 
Ly       = 24.615190 Lz       = 24.615190 Density  = 1.026954 
Volume   = 14914.530927 
---------------- Step  1140000 ----- CPU =    701.3693 (sec) ----------------
Time     = 5700000.000000 Temp     = 290.798944 Press    = 991.666636 
PotEng   = -8.456491 KinEng   = 0.865123 Lx       = 24.474996 
Ly       = 24.474996 Lz       = 24.474996 Density  = 1.044702 
Volume   = 14661.145655 
---------------- Step  1150000 ----- CPU =    707.4905 (sec) ----------------
Time     = 5750000.000000 Temp     = 291.053609 Press    = 1315.714593 
PotEng   = -8.543096 KinEng   = 0.865881 Lx       = 24.590797 
Ly       = 24.590797 Lz       = 24.590797 Density  = 1.030013 
Volume   = 14870.234953 
---------------- Step  1160000 ----- CPU =    713.6351 (sec) ----------------
Time     = 5800000.000000 Temp     = 292.747786 Press    = 1554.320989 
PotEng   = -8.552364 KinEng   = 0.870921 Lx       = 24.525584 
Ly       = 24.525584 Lz       = 24.525584 Density  = 1.038251 
Volume   = 14752.242716 
---------------- Step  1170000 ----- CPU =    719.7617 (sec) ----------------
Time     = 5850000.000000 Temp     = 272.919969 Press    = 674.365619 
PotEng   = -8.517841 KinEng   = 0.811934 Lx       = 24.534749 
Ly       = 24.534749 Lz       = 24.534749 Density  = 1.037088 
Volume   = 14768.788500 
---------------- Step  1180000 ----- CPU =    725.9721 (sec) ----------------
Time     = 5900000.000000 Temp     = 277.487239 Press    = 1205.453735 
PotEng   = -8.609051 KinEng   = 0.825521 Lx       = 24.366382 
Ly       = 24.366382 Lz       = 24.366382 Density  = 1.058735 
Volume   = 14466.823140 
---------------- Step  1190000 ----- CPU =    732.1144 (sec) ----------------
Time     = 5950000.000000 Temp     = 300.182438 Press    = 958.425493 
PotEng   = -8.590564 KinEng   = 0.893039 Lx       = 24.462433 
Ly       = 24.462433 Lz       = 24.462433 Density  = 1.046313 
Volume   = 14638.579806 
---------------- Step  1200000 ----- CPU =    738.1641 (sec) ----------------
Time     = 6000000.000000 Temp     = 271.258082 Press    = 1302.504560 
PotEng   = -8.534140 KinEng   = 0.806990 Lx       = 24.408471 
Ly       = 24.408471 Lz       = 24.408471 Density  = 1.053268 
Volume   = 14541.918546 
---------------- Step  1210000 ----- CPU =    744.1830 (sec) ----------------
Time     = 6050000.000000 Temp     = 270.777931 Press    = 437.665195 
PotEng   = -8.522980 KinEng   = 0.805561 Lx       = 24.611088 
Ly       = 24.611088 Lz       = 24.611088 Density  = 1.027467 
Volume   = 14907.075131 
---------------- Step  1220000 ----- CPU =    750.5410 (sec) ----------------
Time     = 6100000.000000 Temp     = 289.781570 Press    = 1317.306779 
PotEng   = -8.572058 KinEng   = 0.862097 Lx       = 24.409825 
Ly       = 24.409825 Lz       = 24.409825 Density  = 1.053093 
Volume   = 14544.338843 
---------------- Step  1230000 ----- CPU =    756.6794 (sec) ----------------
Time     = 6150000.000000 Temp     = 268.402437 Press    = 941.363880 
PotEng   = -8.480899 KinEng   = 0.798494 Lx       = 24.363496 
Ly       = 24.363496 Lz       = 24.363496 Density  = 1.059111 
Volume   = 14461.683161 
---------------- Step  1240000 ----- CPU =    762.6944 (sec) ----------------
Time     = 6200000.000000 Temp     = 289.843420 Press    = -106.230507 
PotEng   = -8.548468 KinEng   = 0.862281 Lx       = 24.405965 
Ly       = 24.405965 Lz       = 24.405965 Density  = 1.053592 
Volume   = 14537.440401 
---------------- Step  1250000 ----- CPU =    768.8333 (sec) ----------------
Time     = 6250000.000000 Temp     = 294.749103 Press    = 27.384289 
PotEng   = -8.591542 KinEng   = 0.876875 Lx       = 24.522051 
Ly       = 24.522051 Lz       = 24.522051 Density  = 1.038700 
Volume   = 14745.868902 
---------------- Step  1260000 ----- CPU =    774.9633 (sec) ----------------
Time     = 6300000.000000 Temp     = 293.348351 Press    = 1460.637269 
PotEng   = -8.573111 KinEng   = 0.872708 Lx       = 24.370222 
Ly       = 24.370222 Lz       = 24.370222 Density  = 1.058235 
Volume   = 14473.662712 
---------------- Step  1270000 ----- CPU =    781.0329 (sec) ----------------
Time     = 6350000.000000 Temp     = 286.436368 Press    = 1038.683464 
PotEng   = -8.620428 KinEng   = 0.852145 Lx       = 24.547455 
Ly       = 24.547455 Lz       = 24.547455 Density  = 1.035479 
Volume   = 14791.744606 
---------------- Step  1280000 ----- CPU =    787.2902 (sec) ----------------
Time     = 6400000.000000 Temp     = 271.423092 Press    = 794.197651 
PotEng   = -8.627951 KinEng   = 0.807480 Lx       = 24.443964 
Ly       = 24.443964 Lz       = 24.443964 Density  = 1.048686 
Volume   = 14605.448086 
---------------- Step  1290000 ----- CPU =    793.4376 (sec) ----------------
Time     = 6450000.000000 Temp     = 274.314790 Press    = 1810.513376 
PotEng   = -8.587631 KinEng   = 0.816083 Lx       = 24.403957 
Ly       = 24.403957 Lz       = 24.403957 Density  = 1.053852 
Volume   = 14533.852576 
---------------- Step  1300000 ----- CPU =    799.6331 (sec) ----------------
Time     = 6500000.000000 Temp     = 267.270004 Press    = 1199.950059 
PotEng   = -8.505400 KinEng   = 0.795125 Lx       = 24.465796 
Ly       = 24.465796 Lz       = 24.465796 Density  = 1.045881 
Volume   = 14644.617872 
---------------- Step  1310000 ----- CPU =    805.6724 (sec) ----------------
Time     = 6550000.000000 Temp     = 278.131785 Press    = 1392.453051 
PotEng   = -8.574962 KinEng   = 0.827439 Lx       = 24.512970 
Ly       = 24.512970 Lz       = 24.512970 Density  = 1.039855 
Volume   = 14729.493719 
---------------- Step  1320000 ----- CPU =    811.9079 (sec) ----------------
Time     = 6600000.000000 Temp     = 265.843800 Press    = 134.092755 
PotEng   = -8.577967 KinEng   = 0.790882 Lx       = 24.396009 
Ly       = 24.396009 Lz       = 24.396009 Density  = 1.054883 
Volume   = 14519.657710 
---------------- Step  1330000 ----- CPU =    818.0591 (sec) ----------------
Time     = 6650000.000000 Temp     = 303.143384 Press    = 741.800067 
PotEng   = -8.526910 KinEng   = 0.901848 Lx       = 24.414795 
Ly       = 24.414795 Lz       = 24.414795 Density  = 1.052450 
Volume   = 14553.224512 
---------------- Step  1340000 ----- CPU =    824.1418 (sec) ----------------
Time     = 6700000.000000 Temp     = 293.171504 Press    = 660.788165 
PotEng   = -8.617128 KinEng   = 0.872182 Lx       = 24.524592 
Ly       = 24.524592 Lz       = 24.524592 Density  = 1.038377 
Volume   = 14750.453912 
---------------- Step  1350000 ----- CPU =    830.3167 (sec) ----------------
Time     = 6750000.000000 Temp     = 288.628157 Press    = 1322.464024 
PotEng   = -8.577712 KinEng   = 0.858665 Lx       = 24.356053 
Ly       = 24.356053 Lz       = 24.356053 Density  = 1.060083 
Volume   = 14448.432473 
---------------- Step  1360000 ----- CPU =    836.4376 (sec) ----------------
Time     = 6800000.000000 Temp     = 278.626181 Press    = 680.766186 
PotEng   = -8.553734 KinEng   = 0.828910 Lx       = 24.657024 
Ly       = 24.657024 Lz       = 24.657024 Density  = 1.021736 
Volume   = 14990.702579 
---------------- Step  1370000 ----- CPU =    842.6051 (sec) ----------------
Time     = 6850000.000000 Temp     = 273.953587 Press    = 1688.532409 
PotEng   = -8.522472 KinEng   = 0.815009 Lx       = 24.292969 
Ly       = 24.292969 Lz       = 24.292969 Density  = 1.068363 
Volume   = 14336.456188 
---------------- Step  1380000 ----- CPU =    848.7330 (sec) ----------------
Time     = 6900000.000000 Temp     = 281.014862 Press    = 1250.852841 
PotEng   = -8.597697 KinEng   = 0.836016 Lx       = 24.545489 
Ly       = 24.545489 Lz       = 24.545489 Density  = 1.035727 
Volume   = 14788.192022 
---------------- Step  1390000 ----- CPU =    854.8993 (sec) ----------------
Time     = 6950000.000000 Temp     = 276.411632 Press    = 211.139823 
PotEng   = -8.580788 KinEng   = 0.822321 Lx       = 24.502403 
Ly       = 24.502403 Lz       = 24.502403 Density  = 1.041201 
Volume   = 14710.452054 
---------------- Step  1400000 ----- CPU =    860.9916 (sec) ----------------
Time     = 7000000.000000 Temp     = 295.700627 Press    = 1383.522841 
PotEng   = -8.586672 KinEng   = 0.879706 Lx       = 24.449573 
Ly       = 24.449573 Lz       = 24.449573 Density  = 1.047965 
Volume   = 14615.505849 
---------------- Step  1410000 ----- CPU =    867.1490 (sec) ----------------
Time     = 7050000.000000 Temp     = 261.272056 Press    = 180.390243 
PotEng   = -8.554395 KinEng   = 0.777281 Lx       = 24.579730 
Ly       = 24.579730 Lz       = 24.579730 Density  = 1.031405 
Volume   = 14850.166901 
---------------- Step  1420000 ----- CPU =    873.1670 (sec) ----------------
Time     = 7100000.000000 Temp     = 308.629923 Press    = 1806.056583 
PotEng   = -8.550186 KinEng   = 0.918170 Lx       = 24.524181 
Ly       = 24.524181 Lz       = 24.524181 Density  = 1.038429 
Volume   = 14749.712456 
---------------- Step  1430000 ----- CPU =    879.3105 (sec) ----------------
Time     = 7150000.000000 Temp     = 279.692269 Press    = 394.629198 
PotEng   = -8.501462 KinEng   = 0.832081 Lx       = 24.637882 
Ly       = 24.637882 Lz       = 24.637882 Density  = 1.024119 
Volume   = 14955.815212 
---------------- Step  1440000 ----- CPU =    885.4315 (sec) ----------------
Time     = 7200000.000000 Temp     = 261.287523 Press    = 878.418002 
PotEng   = -8.492178 KinEng   = 0.777327 Lx       = 24.507332 
Ly       = 24.507332 Lz       = 24.507332 Density  = 1.040573 
Volume   = 14719.331378 
---------------- Step  1450000 ----- CPU =    891.5761 (sec) ----------------
Time     = 7250000.000000 Temp     = 285.219285 Press    = 1117.717618 
PotEng   = -8.491361 KinEng   = 0.848524 Lx       = 24.424365 
Ly       = 24.424365 Lz       = 24.424365 Density  = 1.051213 
Volume   = 14570.344681 
---------------- Step  1460000 ----- CPU =    897.6632 (sec) ----------------
Time     = 7300000.000000 Temp     = 282.191057 Press    = 1514.940671 
PotEng   = -8.546578 KinEng   = 0.839515 Lx       = 24.372467 
Ly       = 24.372467 Lz       = 24.372467 Density  = 1.057943 
Volume   = 14477.662632 
---------------- Step  1470000 ----- CPU =    904.0014 (sec) ----------------
Time     = 7350000.000000 Temp     = 281.079640 Press    = 1450.987075 
PotEng   = -8.576721 KinEng   = 0.836209 Lx       = 24.510532 
Ly       = 24.510532 Lz       = 24.510532 Density  = 1.040165 
Volume   = 14725.097909 
---------------- Step  1480000 ----- CPU =    910.0707 (sec) ----------------
Time     = 7400000.000000 Temp     = 277.833928 Press    = -370.111019 
PotEng   = -8.564368 KinEng   = 0.826553 Lx       = 24.651515 
Ly       = 24.651515 Lz       = 24.651515 Density  = 1.022421 
Volume   = 14980.656851 
---------------- Step  1490000 ----- CPU =    916.1526 (sec) ----------------
Time     = 7450000.000000 Temp     = 275.618011 Press    = 377.388360 
PotEng   = -8.598656 KinEng   = 0.819960 Lx       = 24.529078 
Ly       = 24.529078 Lz       = 24.529078 Density  = 1.037808 
Volume   = 14758.548879 
---------------- Step  1500000 ----- CPU =    922.3521 (sec) ----------------
Time     = 7500000.000000 Temp     = 287.042271 Press    = 1017.005882 
PotEng   = -8.563687 KinEng   = 0.853947 Lx       = 24.389492 
Ly       = 24.389492 Lz       = 24.389492 Density  = 1.055729 
Volume   = 14508.024105 
---------------- Step  1510000 ----- CPU =    928.5327 (sec) ----------------
Time     = 7550000.000000 Temp     = 293.210869 Press    = 1316.440801 
PotEng   = -8.525173 KinEng   = 0.872299 Lx       = 24.413974 
Ly       = 24.413974 Lz       = 24.413974 Density  = 1.052556 
Volume   = 14551.756531 
---------------- Step  1520000 ----- CPU =    934.7415 (sec) ----------------
Time     = 7600000.000000 Temp     = 265.118703 Press    = 631.504019 
PotEng   = -8.558683 KinEng   = 0.788725 Lx       = 24.452890 
Ly       = 24.452890 Lz       = 24.452890 Density  = 1.047538 
Volume   = 14621.453914 
---------------- Step  1530000 ----- CPU =    940.7984 (sec) ----------------
Time     = 7650000.000000 Temp     = 275.657648 Press    = 318.500104 
PotEng   = -8.512848 KinEng   = 0.820078 Lx       = 24.383919 
Ly       = 24.383919 Lz       = 24.383919 Density  = 1.056453 
Volume   = 14498.080442 
---------------- Step  1540000 ----- CPU =    946.9435 (sec) ----------------
Time     = 7700000.000000 Temp     = 286.868454 Press    = 776.942547 
PotEng   = -8.529976 KinEng   = 0.853430 Lx       = 24.440564 
Ly       = 24.440564 Lz       = 24.440564 Density  = 1.049124 
Volume   = 14599.355224 
---------------- Step  1550000 ----- CPU =    953.0786 (sec) ----------------
Time     = 7750000.000000 Temp     = 276.888791 Press    = 1143.284691 
PotEng   = -8.648690 KinEng   = 0.823741 Lx       = 24.642827 
Ly       = 24.642827 Lz       = 24.642827 Density  = 1.023503 
Volume   = 14964.822211 
---------------- Step  1560000 ----- CPU =    959.3478 (sec) ----------------
Time     = 7800000.000000 Temp     = 272.343089 Press    = 1379.444713 
PotEng   = -8.533923 KinEng   = 0.810217 Lx       = 24.404033 
Ly       = 24.404033 Lz       = 24.404033 Density  = 1.053842 
Volume   = 14533.988482 
---------------- Step  1570000 ----- CPU =    965.5198 (sec) ----------------
Time     = 7850000.000000 Temp     = 274.668744 Press    = 492.062690 
PotEng   = -8.517680 KinEng   = 0.817136 Lx       = 24.415884 
Ly       = 24.415884 Lz       = 24.415884 Density  = 1.052309 
Volume   = 14555.173352 
---------------- Step  1580000 ----- CPU =    971.6513 (sec) ----------------
Time     = 7900000.000000 Temp     = 285.926141 Press    = 926.007560 
PotEng   = -8.550648 KinEng   = 0.850627 Lx       = 24.363218 
Ly       = 24.363218 Lz       = 24.363218 Density  = 1.059148 
Volume   = 14461.187903 
---------------- Step  1590000 ----- CPU =    977.7917 (sec) ----------------
Time     = 7950000.000000 Temp     = 290.109313 Press    = 1426.241164 
PotEng   = -8.549934 KinEng   = 0.863072 Lx       = 24.454984 
Ly       = 24.454984 Lz       = 24.454984 Density  = 1.047269 
Volume   = 14625.211137 
---------------- Step  1600000 ----- CPU =    983.9361 (sec) ----------------
Time     = 8000000.000000 Temp     = 268.726696 Press    = 796.240073 
PotEng   = -8.557157 KinEng   = 0.799459 Lx       = 24.388974 
Ly       = 24.388974 Lz       = 24.388974 Density  = 1.055796 
Volume   = 14507.099616 
---------------- Step  1610000 ----- CPU =    990.1042 (sec) ----------------
Time     = 8050000.000000 Temp     = 269.026229 Press    = 109.112174 
PotEng   = -8.531600 KinEng   = 0.800350 Lx       = 24.528249 
Ly       = 24.528249 Lz       = 24.528249 Density  = 1.037913 
Volume   = 14757.053288 
---------------- Step  1620000 ----- CPU =    996.2503 (sec) ----------------
Time     = 8100000.000000 Temp     = 296.903025 Press    = 1030.681963 
PotEng   = -8.567710 KinEng   = 0.883283 Lx       = 24.425808 
Ly       = 24.425808 Lz       = 24.425808 Density  = 1.051027 
Volume   = 14572.927589 
---------------- Step  1630000 ----- CPU =   1002.3651 (sec) ----------------
Time     = 8150000.000000 Temp     = 274.460066 Press    = 1426.494243 
PotEng   = -8.598123 KinEng   = 0.816515 Lx       = 24.495190 
Ly       = 24.495190 Lz       = 24.495190 Density  = 1.042121 
Volume   = 14697.464856 
---------------- Step  1640000 ----- CPU =   1008.4507 (sec) ----------------
Time     = 8200000.000000 Temp     = 287.038704 Press    = 1001.717676 
PotEng   = -8.567617 KinEng   = 0.853937 Lx       = 24.557007 
Ly       = 24.557007 Lz       = 24.557007 Density  = 1.034271 
Volume   = 14809.018712 
---------------- Step  1650000 ----- CPU =   1014.5609 (sec) ----------------
Time     = 8250000.000000 Temp     = 300.032727 Press    = 1153.398856 
PotEng   = -8.621158 KinEng   = 0.892594 Lx       = 24.391673 
Ly       = 24.391673 Lz       = 24.391673 Density  = 1.055445 
Volume   = 14511.915503 
---------------- Step  1660000 ----- CPU =   1020.7288 (sec) ----------------
Time     = 8300000.000000 Temp     = 273.282217 Press    = 1200.345471 
PotEng   = -8.557666 KinEng   = 0.813011 Lx       = 24.456934 
Ly       = 24.456934 Lz       = 24.456934 Density  = 1.047019 
Volume   = 14628.709601 
---------------- Step  1670000 ----- CPU =   1026.8045 (sec) ----------------
Time     = 8350000.000000 Temp     = 270.033020 Press    = 1055.367731 
PotEng   = -8.596715 KinEng   = 0.803345 Lx       = 24.570394 
Ly       = 24.570394 Lz       = 24.570394 Density  = 1.032581 
Volume   = 14833.251140 
---------------- Step  1680000 ----- CPU =   1033.0412 (sec) ----------------
Time     = 8400000.000000 Temp     = 294.873581 Press    = 856.637727 
PotEng   = -8.542717 KinEng   = 0.877245 Lx       = 24.332313 
Ly       = 24.332313 Lz       = 24.332313 Density  = 1.063189 
Volume   = 14406.224290 
---------------- Step  1690000 ----- CPU =   1039.2806 (sec) ----------------
Time     = 8450000.000000 Temp     = 273.412872 Press    = 615.739034 
PotEng   = -8.517943 KinEng   = 0.813400 Lx       = 24.363175 
Ly       = 24.363175 Lz       = 24.363175 Density  = 1.059153 
Volume   = 14461.110428 
---------------- Step  1700000 ----- CPU =   1045.4420 (sec) ----------------
Time     = 8500000.000000 Temp     = 277.358549 Press    = 356.436560 
PotEng   = -8.544066 KinEng   = 0.825138 Lx       = 24.546941 
Ly       = 24.546941 Lz       = 24.546941 Density  = 1.035544 
Volume   = 14790.815312 
---------------- Step  1710000 ----- CPU =   1051.6586 (sec) ----------------
Time     = 8550000.000000 Temp     = 278.309834 Press    = 468.749761 
PotEng   = -8.550942 KinEng   = 0.827968 Lx       = 24.449248 
Ly       = 24.449248 Lz       = 24.449248 Density  = 1.048007 
Volume   = 14614.922153 
---------------- Step  1720000 ----- CPU =   1057.8854 (sec) ----------------
Time     = 8600000.000000 Temp     = 282.273133 Press    = 887.127086 
PotEng   = -8.566607 KinEng   = 0.839759 Lx       = 24.494568 
Ly       = 24.494568 Lz       = 24.494568 Density  = 1.042200 
Volume   = 14696.346122 
---------------- Step  1730000 ----- CPU =   1063.9404 (sec) ----------------
Time     = 8650000.000000 Temp     = 277.029137 Press    = 391.143218 
PotEng   = -8.509989 KinEng   = 0.824158 Lx       = 24.486608 
Ly       = 24.486608 Lz       = 24.486608 Density  = 1.043217 
Volume   = 14682.022937 
---------------- Step  1740000 ----- CPU =   1070.0262 (sec) ----------------
Time     = 8700000.000000 Temp     = 291.432995 Press    = 304.419782 
PotEng   = -8.543750 KinEng   = 0.867010 Lx       = 24.523587 
Ly       = 24.523587 Lz       = 24.523587 Density  = 1.038505 
Volume   = 14748.639367 
---------------- Step  1750000 ----- CPU =   1076.2580 (sec) ----------------
Time     = 8750000.000000 Temp     = 305.690226 Press    = 1235.195878 
PotEng   = -8.595389 KinEng   = 0.909425 Lx       = 24.404754 
Ly       = 24.404754 Lz       = 24.404754 Density  = 1.053749 
Volume   = 14535.275868 
---------------- Step  1760000 ----- CPU =   1082.3040 (sec) ----------------
Time     = 8800000.000000 Temp     = 286.120722 Press    = 767.559333 
PotEng   = -8.519722 KinEng   = 0.851206 Lx       = 24.452926 
Ly       = 24.452926 Lz       = 24.452926 Density  = 1.047534 
Volume   = 14621.519458 
---------------- Step  1770000 ----- CPU =   1088.3214 (sec) ----------------
Time     = 8850000.000000 Temp     = 281.892027 Press    = 1982.927275 
PotEng   = -8.546247 KinEng   = 0.838625 Lx       = 24.466631 
Ly       = 24.466631 Lz       = 24.466631 Density  = 1.045774 
Volume   = 14646.118323 
---------------- Step  1780000 ----- CPU =   1094.4897 (sec) ----------------
Time     = 8900000.000000 Temp     = 294.478842 Press    = 1334.066640 
PotEng   = -8.598099 KinEng   = 0.876071 Lx       = 24.513627 
Ly       = 24.513627 Lz       = 24.513627 Density  = 1.039771 
Volume   = 14730.677018 
---------------- Step  1790000 ----- CPU =   1100.6488 (sec) ----------------
Time     = 8950000.000000 Temp     = 300.255591 Press    = 685.545191 
PotEng   = -8.577239 KinEng   = 0.893257 Lx       = 24.541912 
Ly       = 24.541912 Lz       = 24.541912 Density  = 1.036180 
Volume   = 14781.726933 
---------------- Step  1800000 ----- CPU =   1106.9117 (sec) ----------------
Time     = 9000000.000000 Temp     = 263.117135 Press    = 372.594835 
PotEng   = -8.588113 KinEng   = 0.782770 Lx       = 24.467597 
Ly       = 24.467597 Lz       = 24.467597 Density  = 1.045651 
Volume   = 14647.852061 
---------------- Step  1810000 ----- CPU =   1113.1207 (sec) ----------------
Time     = 9050000.000000 Temp     = 287.162846 Press    = 786.995119 
PotEng   = -8.611862 KinEng   = 0.854306 Lx       = 24.455604 
Ly       = 24.455604 Lz       = 24.455604 Density  = 1.047190 
Volume   = 14626.324120 
---------------- Step  1820000 ----- CPU =   1119.2603 (sec) ----------------
Time     = 9100000.000000 Temp     = 302.598615 Press    = 1474.747789 
PotEng   = -8.565460 KinEng   = 0.900227 Lx       = 24.465687 
Ly       = 24.465687 Lz       = 24.465687 Density  = 1.045895 
Volume   = 14644.421921 
---------------- Step  1830000 ----- CPU =   1125.4121 (sec) ----------------
Time     = 9150000.000000 Temp     = 290.885939 Press    = 1230.128189 
PotEng   = -8.577400 KinEng   = 0.865382 Lx       = 24.472179 
Ly       = 24.472179 Lz       = 24.472179 Density  = 1.045063 
Volume   = 14656.082800 
---------------- Step  1840000 ----- CPU =   1131.5567 (sec) ----------------
Time     = 9200000.000000 Temp     = 278.724449 Press    = 1635.195345 
PotEng   = -8.536501 KinEng   = 0.829202 Lx       = 24.580481 
Ly       = 24.580481 Lz       = 24.580481 Density  = 1.031310 
Volume   = 14851.527940 
---------------- Step  1850000 ----- CPU =   1137.7263 (sec) ----------------
Time     = 9250000.000000 Temp     = 292.728923 Press    = 472.858823 
PotEng   = -8.516694 KinEng   = 0.870865 Lx       = 24.518536 
Ly       = 24.518536 Lz       = 24.518536 Density  = 1.039147 
Volume   = 14739.529032 
---------------- Step  1860000 ----- CPU =   1144.1976 (sec) ----------------
Time     = 9300000.000000 Temp     = 270.445626 Press    = -46.179919 
PotEng   = -8.539122 KinEng   = 0.804573 Lx       = 24.476351 
Ly       = 24.476351 Lz       = 24.476351 Density  = 1.044529 
Volume   = 14663.580855 
---------------- Step  1870000 ----- CPU =   1150.4433 (sec) ----------------
Time     = 9350000.000000 Temp     = 288.868403 Press    = 1694.658861 
PotEng   = -8.524645 KinEng   = 0.859380 Lx       = 24.340790 
Ly       = 24.340790 Lz       = 24.340790 Density  = 1.062078 
Volume   = 14421.285951 
---------------- Step  1880000 ----- CPU =   1156.6402 (sec) ----------------
Time     = 9400000.000000 Temp     = 262.687384 Press    = 1446.652247 
PotEng   = -8.622660 KinEng   = 0.781492 Lx       = 24.431474 
Ly       = 24.431474 Lz       = 24.431474 Density  = 1.050296 
Volume   = 14583.070999 
---------------- Step  1890000 ----- CPU =   1162.8105 (sec) ----------------
Time     = 9450000.000000 Temp     = 285.387421 Press    = -802.718902 
PotEng   = -8.499570 KinEng   = 0.849024 Lx       = 24.495919 
Ly       = 24.495919 Lz       = 24.495919 Density  = 1.042028 
Volume   = 14698.777969 
---------------- Step  1900000 ----- CPU =   1169.0260 (sec) ----------------
Time     = 9500000.000000 Temp     = 298.870812 Press    = 1246.633314 
PotEng   = -8.542734 KinEng   = 0.889137 Lx       = 24.340125 
Ly       = 24.340125 Lz       = 24.340125 Density  = 1.062165 
Volume   = 14420.105026 
---------------- Step  1910000 ----- CPU =   1175.1895 (sec) ----------------
Time     = 9550000.000000 Temp     = 268.289808 Press    = 427.221880 
PotEng   = -8.555451 KinEng   = 0.798159 Lx       = 24.420908 
Ly       = 24.420908 Lz       = 24.420908 Density  = 1.051659 
Volume   = 14564.160195 
---------------- Step  1920000 ----- CPU =   1181.4139 (sec) ----------------
Time     = 9600000.000000 Temp     = 276.409330 Press    = -46.160905 
PotEng   = -8.539971 KinEng   = 0.822314 Lx       = 24.527351 
Ly       = 24.527351 Lz       = 24.527351 Density  = 1.038027 
Volume   = 14755.432251 
---------------- Step  1930000 ----- CPU =   1187.4999 (sec) ----------------
Time     = 9650000.000000 Temp     = 268.912157 Press    = 1360.004821 
PotEng   = -8.585540 KinEng   = 0.800010 Lx       = 24.475113 
Ly       = 24.475113 Lz       = 24.475113 Density  = 1.044687 
Volume   = 14661.355791 
---------------- Step  1940000 ----- CPU =   1193.6582 (sec) ----------------
Time     = 9700000.000000 Temp     = 272.961583 Press    = 606.026857 
PotEng   = -8.544026 KinEng   = 0.812057 Lx       = 24.358964 
Ly       = 24.358964 Lz       = 24.358964 Density  = 1.059703 
Volume   = 14453.613195 
---------------- Step  1950000 ----- CPU =   1199.8605 (sec) ----------------
Time     = 9750000.000000 Temp     = 284.458535 Press    = 565.154135 
PotEng   = -8.561264 KinEng   = 0.846261 Lx       = 24.522195 
Ly       = 24.522195 Lz       = 24.522195 Density  = 1.038682 
Volume   = 14746.128730 
---------------- Step  1960000 ----- CPU =   1205.8864 (sec) ----------------
Time     = 9800000.000000 Temp     = 277.684784 Press    = -628.530675 
PotEng   = -8.544458 KinEng   = 0.826109 Lx       = 24.557580 
Ly       = 24.557580 Lz       = 24.557580 Density  = 1.034198 
Volume   = 14810.055734 
---------------- Step  1970000 ----- CPU =   1212.0727 (sec) ----------------
Time     = 9850000.000000 Temp     = 265.452726 Press    = 1405.538835 
PotEng   = -8.541992 KinEng   = 0.789719 Lx       = 24.504475 
Ly       = 24.504475 Lz       = 24.504475 Density  = 1.040937 
Volume   = 14714.185411 
---------------- Step  1980000 ----- CPU =   1218.2281 (sec) ----------------
Time     = 9900000.000000 Temp     = 264.632923 Press    = 1626.258150 
PotEng   = -8.509697 KinEng   = 0.787280 Lx       = 24.403248 
Ly       = 24.403248 Lz       = 24.403248 Density  = 1.053944 
Volume   = 14532.586655 
---------------- Step  1990000 ----- CPU =   1224.4330 (sec) ----------------
Time     = 9950000.000000 Temp     = 284.476915 Press    = 1446.302534 
PotEng   = -8.570519 KinEng   = 0.846315 Lx       = 24.320948 
Ly       = 24.320948 Lz       = 24.320948 Density  = 1.064680 
Volume   = 14386.048107 
---------------- Step  2000000 ----- CPU =   1230.6134 (sec) ----------------
Time     = 10000000.000000 Temp     = 270.418524 Press    = 111.071158 
PotEng   = -8.601755 KinEng   = 0.804492 Lx       = 24.404510 
Ly       = 24.404510 Lz       = 24.404510 Density  = 1.053781 
Volume   = 14534.840060 
Loop time of 1230.61 on 6 procs for 2000000 steps with 512 atoms

Performance: 702.089 ns/day, 0.034 hours/ns, 1625.206 timesteps/s
99.8% CPU use with 6 MPI tasks x no OpenMP threads

MPI task timing breakdown:
Section |  min time  |  avg time  |  max time  |%varavg| %total
---------------------------------------------------------------
Pair    | 988.24     | 1025.2     | 1056.3     |  93.6 | 83.31
Neigh   | 16.866     | 17.391     | 17.91      |  11.6 |  1.41
Comm    | 133.25     | 165.55     | 203.99     | 238.1 | 13.45
Output  | 0.0055068  | 0.011212   | 0.039594   |  12.0 |  0.00
Modify  | 18.089     | 18.637     | 19.413     |  11.0 |  1.51
Other   |            | 3.785      |            |       |  0.31

Nlocal:    85.3333 ave 91 max 81 min
Histogram: 1 1 0 1 0 0 2 0 0 1
Nghost:    479.5 ave 493 max 466 min
Histogram: 1 0 1 0 1 0 2 0 0 1
Neighs:    0 ave 0 max 0 min
Histogram: 6 0 0 0 0 0 0 0 0 0
FullNghs:  2089 ave 2216 max 1937 min
Histogram: 1 0 0 1 1 1 0 0 0 2

Total # of neighbors = 12534
Ave neighs/atom = 24.4805
Neighbor list builds = 115202
Dangerous builds = 0
Setting up Verlet run ...
  Unit style    : real
  Current step  : 2000000
  Time step     : 5
Per MPI rank memory allocation (min/avg/max) = 2.941 | 2.941 | 2.942 Mbytes
---------------- Step  2000000 ----- CPU =      0.0000 (sec) ----------------
Time     = 10000000.000000 Temp     = 270.418524 Press    = 111.071158 
PotEng   = -8.601755 KinEng   = 0.804492 Lx       = 24.404510 
Ly       = 24.404510 Lz       = 24.404510 Density  = 1.053781 
Volume   = 14534.840060 
---------------- Step  2010000 ----- CPU =      6.1059 (sec) ----------------
Time     = 10050000.000000 Temp     = 270.975210 Press    = -815.741534 
PotEng   = -8.540873 KinEng   = 0.806148 Lx       = 24.553915 
Ly       = 24.553915 Lz       = 24.553915 Density  = 1.034661 
Volume   = 14803.426157 
---------------- Step  2020000 ----- CPU =     12.2662 (sec) ----------------
Time     = 10100000.000000 Temp     = 267.275607 Press    = 472.075672 
PotEng   = -8.583957 KinEng   = 0.795142 Lx       = 24.420527 
Ly       = 24.420527 Lz       = 24.420527 Density  = 1.051709 
Volume   = 14563.477680 
---------------- Step  2030000 ----- CPU =     18.5662 (sec) ----------------
Time     = 10150000.000000 Temp     = 282.650362 Press    = -123.902071 
PotEng   = -8.615058 KinEng   = 0.840881 Lx       = 24.515964 
Ly       = 24.515964 Lz       = 24.515964 Density  = 1.039474 
Volume   = 14734.890474 
---------------- Step  2040000 ----- CPU =     24.7723 (sec) ----------------
Time     = 10200000.000000 Temp     = 268.767206 Press    = 2036.074378 
PotEng   = -8.602849 KinEng   = 0.799579 Lx       = 24.384882 
Ly       = 24.384882 Lz       = 24.384882 Density  = 1.056327 
Volume   = 14499.799656 
---------------- Step  2050000 ----- CPU =     30.9519 (sec) ----------------
Time     = 10250000.000000 Temp     = 279.494059 Press    = 1574.565385 
PotEng   = -8.523955 KinEng   = 0.831492 Lx       = 24.360236 
Ly       = 24.360236 Lz       = 24.360236 Density  = 1.059537 
Volume   = 14455.878402 
---------------- Step  2060000 ----- CPU =     37.1205 (sec) ----------------
Time     = 10300000.000000 Temp     = 280.818741 Press    = 3292.170409 
PotEng   = -8.527231 KinEng   = 0.835432 Lx       = 24.282849 
Ly       = 24.282849 Lz       = 24.282849 Density  = 1.069699 
Volume   = 14318.546563 
---------------- Step  2070000 ----- CPU =     43.3130 (sec) ----------------
Time     = 10350000.000000 Temp     = 293.692891 Press    = 536.628271 
PotEng   = -8.610131 KinEng   = 0.873733 Lx       = 24.505769 
Ly       = 24.505769 Lz       = 24.505769 Density  = 1.040772 
Volume   = 14716.516162 
---------------- Step  2080000 ----- CPU =     49.5378 (sec) ----------------
Time     = 10400000.000000 Temp     = 273.635613 Press    = 791.666757 
PotEng   = -8.561827 KinEng   = 0.814063 Lx       = 24.572658 
Ly       = 24.572658 Lz       = 24.572658 Density  = 1.032296 
Volume   = 14837.352190 
---------------- Step  2090000 ----- CPU =     55.6293 (sec) ----------------
Time     = 10450000.000000 Temp     = 288.036063 Press    = 1814.643094 
PotEng   = -8.563429 KinEng   = 0.856904 Lx       = 24.398990 
Ly       = 24.398990 Lz       = 24.398990 Density  = 1.054496 
Volume   = 14524.980901 
---------------- Step  2100000 ----- CPU =     61.9222 (sec) ----------------
Time     = 10500000.000000 Temp     = 279.774733 Press    = 500.106911 
PotEng   = -8.552924 KinEng   = 0.832327 Lx       = 24.475792 
Ly       = 24.475792 Lz       = 24.475792 Density  = 1.044601 
Volume   = 14662.575931 
---------------- Step  2110000 ----- CPU =     68.0301 (sec) ----------------
Time     = 10550000.000000 Temp     = 291.488327 Press    = 1286.573271 
PotEng   = -8.606753 KinEng   = 0.867174 Lx       = 24.478954 
Ly       = 24.478954 Lz       = 24.478954 Density  = 1.044196 
Volume   = 14668.258787 
---------------- Step  2120000 ----- CPU =     74.2348 (sec) ----------------
Time     = 10600000.000000 Temp     = 281.328691 Press    = 679.572599 
PotEng   = -8.535717 KinEng   = 0.836950 Lx       = 24.559134 
Ly       = 24.559134 Lz       = 24.559134 Density  = 1.034002 
Volume   = 14812.867963 
---------------- Step  2130000 ----- CPU =     80.4944 (sec) ----------------
Time     = 10650000.000000 Temp     = 292.544246 Press    = 260.724018 
PotEng   = -8.525348 KinEng   = 0.870316 Lx       = 24.648028 
Ly       = 24.648028 Lz       = 24.648028 Density  = 1.022855 
Volume   = 14974.300836 
---------------- Step  2140000 ----- CPU =     86.7609 (sec) ----------------
Time     = 10700000.000000 Temp     = 263.259148 Press    = 617.171350 
PotEng   = -8.468410 KinEng   = 0.783193 Lx       = 24.558354 
Ly       = 24.558354 Lz       = 24.558354 Density  = 1.034100 
Volume   = 14811.456940 
---------------- Step  2150000 ----- CPU =     92.9904 (sec) ----------------
Time     = 10750000.000000 Temp     = 304.108240 Press    = 2065.179604 
PotEng   = -8.523827 KinEng   = 0.904718 Lx       = 24.187397 
Ly       = 24.187397 Lz       = 24.187397 Density  = 1.082413 
Volume   = 14150.357132 
---------------- Step  2160000 ----- CPU =     99.1015 (sec) ----------------
Time     = 10800000.000000 Temp     = 283.921749 Press    = 780.491796 
PotEng   = -8.556734 KinEng   = 0.844664 Lx       = 24.552573 
Ly       = 24.552573 Lz       = 24.552573 Density  = 1.034831 
Volume   = 14800.999296 
---------------- Step  2170000 ----- CPU =    105.2736 (sec) ----------------
Time     = 10850000.000000 Temp     = 260.233214 Press    = -218.076118 
PotEng   = -8.582633 KinEng   = 0.774191 Lx       = 24.523215 
Ly       = 24.523215 Lz       = 24.523215 Density  = 1.038552 
Volume   = 14747.968726 
---------------- Step  2180000 ----- CPU =    111.3509 (sec) ----------------
Time     = 10900000.000000 Temp     = 281.971148 Press    = -3.234401 
PotEng   = -8.579231 KinEng   = 0.838861 Lx       = 24.590986 
Ly       = 24.590986 Lz       = 24.590986 Density  = 1.029989 
Volume   = 14870.577514 
---------------- Step  2190000 ----- CPU =    117.5246 (sec) ----------------
Time     = 10950000.000000 Temp     = 286.461008 Press    = 598.066730 
PotEng   = -8.575563 KinEng   = 0.852218 Lx       = 24.513332 
Ly       = 24.513332 Lz       = 24.513332 Density  = 1.039809 
Volume   = 14730.145260 
---------------- Step  2200000 ----- CPU =    123.8611 (sec) ----------------
Time     = 11000000.000000 Temp     = 277.751260 Press    = 1012.037535 
PotEng   = -8.495752 KinEng   = 0.826307 Lx       = 24.451248 
Ly       = 24.451248 Lz       = 24.451248 Density  = 1.047749 
Volume   = 14618.509754 
---------------- Step  2210000 ----- CPU =    130.0245 (sec) ----------------
Time     = 11050000.000000 Temp     = 277.235025 Press    = 1076.584747 
PotEng   = -8.569916 KinEng   = 0.824771 Lx       = 24.409272 
Ly       = 24.409272 Lz       = 24.409272 Density  = 1.053164 
Volume   = 14543.350308 
---------------- Step  2220000 ----- CPU =    136.2431 (sec) ----------------
Time     = 11100000.000000 Temp     = 269.956547 Press    = 1913.322238 
PotEng   = -8.542273 KinEng   = 0.803118 Lx       = 24.479093 
Ly       = 24.479093 Lz       = 24.479093 Density  = 1.044178 
Volume   = 14668.508530 
---------------- Step  2230000 ----- CPU =    142.3953 (sec) ----------------
Time     = 11150000.000000 Temp     = 274.491185 Press    = 1305.468201 
PotEng   = -8.599432 KinEng   = 0.816608 Lx       = 24.343565 
Ly       = 24.343565 Lz       = 24.343565 Density  = 1.061715 
Volume   = 14426.219335 
---------------- Step  2240000 ----- CPU =    148.5396 (sec) ----------------
Time     = 11200000.000000 Temp     = 294.822802 Press    = 1376.317703 
PotEng   = -8.585157 KinEng   = 0.877094 Lx       = 24.450627 
Ly       = 24.450627 Lz       = 24.450627 Density  = 1.047829 
Volume   = 14617.396163 
---------------- Step  2250000 ----- CPU =    154.6007 (sec) ----------------
Time     = 11250000.000000 Temp     = 287.003738 Press    = 1159.140410 
PotEng   = -8.638905 KinEng   = 0.853833 Lx       = 24.576711 
Ly       = 24.576711 Lz       = 24.576711 Density  = 1.031785 
Volume   = 14844.696180 
---------------- Step  2260000 ----- CPU =    160.7945 (sec) ----------------
Time     = 11300000.000000 Temp     = 293.559330 Press    = 2140.751168 
PotEng   = -8.560667 KinEng   = 0.873336 Lx       = 24.370241 
Ly       = 24.370241 Lz       = 24.370241 Density  = 1.058232 
Volume   = 14473.696359 
---------------- Step  2270000 ----- CPU =    166.9323 (sec) ----------------
Time     = 11350000.000000 Temp     = 274.646926 Press    = 1787.881644 
PotEng   = -8.569437 KinEng   = 0.817071 Lx       = 24.386870 
Ly       = 24.386870 Lz       = 24.386870 Density  = 1.056069 
Volume   = 14503.345470 
---------------- Step  2280000 ----- CPU =    173.0360 (sec) ----------------
Time     = 11400000.000000 Temp     = 284.620380 Press    = 2651.218635 
PotEng   = -8.601226 KinEng   = 0.846742 Lx       = 24.327246 
Ly       = 24.327246 Lz       = 24.327246 Density  = 1.063853 
Volume   = 14397.226071 
---------------- Step  2290000 ----- CPU =    179.2080 (sec) ----------------
Time     = 11450000.000000 Temp     = 295.919228 Press    = 1339.334344 
PotEng   = -8.585524 KinEng   = 0.880356 Lx       = 24.552002 
Ly       = 24.552002 Lz       = 24.552002 Density  = 1.034903 
Volume   = 14799.966477 
---------------- Step  2300000 ----- CPU =    185.4444 (sec) ----------------
Time     = 11500000.000000 Temp     = 284.036674 Press    = 1883.296227 
PotEng   = -8.565318 KinEng   = 0.845006 Lx       = 24.473002 
Ly       = 24.473002 Lz       = 24.473002 Density  = 1.044958 
Volume   = 14657.562308 
---------------- Step  2310000 ----- CPU =    191.5937 (sec) ----------------
Time     = 11550000.000000 Temp     = 273.500037 Press    = -732.770191 
PotEng   = -8.487379 KinEng   = 0.813659 Lx       = 24.518884 
Ly       = 24.518884 Lz       = 24.518884 Density  = 1.039103 
Volume   = 14740.157232 
---------------- Step  2320000 ----- CPU =    197.7301 (sec) ----------------
Time     = 11600000.000000 Temp     = 252.045034 Press    = 542.253072 
PotEng   = -8.499052 KinEng   = 0.749831 Lx       = 24.482501 
Ly       = 24.482501 Lz       = 24.482501 Density  = 1.043742 
Volume   = 14674.635880 
---------------- Step  2330000 ----- CPU =    203.8967 (sec) ----------------
Time     = 11650000.000000 Temp     = 282.805622 Press    = 1395.543163 
PotEng   = -8.537125 KinEng   = 0.841343 Lx       = 24.363287 
Ly       = 24.363287 Lz       = 24.363287 Density  = 1.059139 
Volume   = 14461.311100 
---------------- Step  2340000 ----- CPU =    210.0389 (sec) ----------------
Time     = 11700000.000000 Temp     = 279.065433 Press    = 1534.454729 
PotEng   = -8.604242 KinEng   = 0.830216 Lx       = 24.408620 
Ly       = 24.408620 Lz       = 24.408620 Density  = 1.053248 
Volume   = 14542.185983 
---------------- Step  2350000 ----- CPU =    216.2359 (sec) ----------------
Time     = 11750000.000000 Temp     = 284.660168 Press    = 587.621310 
PotEng   = -8.551652 KinEng   = 0.846861 Lx       = 24.401678 
Ly       = 24.401678 Lz       = 24.401678 Density  = 1.054148 
Volume   = 14529.780739 
---------------- Step  2360000 ----- CPU =    222.4464 (sec) ----------------
Time     = 11800000.000000 Temp     = 284.287496 Press    = 469.425604 
PotEng   = -8.480262 KinEng   = 0.845752 Lx       = 24.588855 
Ly       = 24.588855 Lz       = 24.588855 Density  = 1.030257 
Volume   = 14866.711549 
---------------- Step  2370000 ----- CPU =    228.6371 (sec) ----------------
Time     = 11850000.000000 Temp     = 266.804358 Press    = 311.848095 
PotEng   = -8.563319 KinEng   = 0.793740 Lx       = 24.568832 
Ly       = 24.568832 Lz       = 24.568832 Density  = 1.032778 
Volume   = 14830.422639 
---------------- Step  2380000 ----- CPU =    234.7315 (sec) ----------------
Time     = 11900000.000000 Temp     = 296.529635 Press    = 785.531712 
PotEng   = -8.615700 KinEng   = 0.882172 Lx       = 24.570497 
Ly       = 24.570497 Lz       = 24.570497 Density  = 1.032568 
Volume   = 14833.438650 
---------------- Step  2390000 ----- CPU =    240.9611 (sec) ----------------
Time     = 11950000.000000 Temp     = 294.197527 Press    = 1440.894508 
PotEng   = -8.552154 KinEng   = 0.875234 Lx       = 24.283174 
Ly       = 24.283174 Lz       = 24.283174 Density  = 1.069656 
Volume   = 14319.120553 
---------------- Step  2400000 ----- CPU =    247.0791 (sec) ----------------
Time     = 12000000.000000 Temp     = 274.298594 Press    = 1313.866311 
PotEng   = -8.573993 KinEng   = 0.816035 Lx       = 24.428274 
Ly       = 24.428274 Lz       = 24.428274 Density  = 1.050708 
Volume   = 14577.341609 
---------------- Step  2410000 ----- CPU =    253.2558 (sec) ----------------
Time     = 12050000.000000 Temp     = 293.297925 Press    = 1731.375613 
PotEng   = -8.580748 KinEng   = 0.872558 Lx       = 24.365522 
Ly       = 24.365522 Lz       = 24.365522 Density  = 1.058847 
Volume   = 14465.291134 
---------------- Step  2420000 ----- CPU =    259.4579 (sec) ----------------
Time     = 12100000.000000 Temp     = 261.671709 Press    = 1188.179300 
PotEng   = -8.583802 KinEng   = 0.778470 Lx       = 24.490312 
Ly       = 24.490312 Lz       = 24.490312 Density  = 1.042744 
Volume   = 14688.686011 
---------------- Step  2430000 ----- CPU =    265.5655 (sec) ----------------
Time     = 12150000.000000 Temp     = 274.723278 Press    = 166.264560 
PotEng   = -8.577558 KinEng   = 0.817298 Lx       = 24.425984 
Ly       = 24.425984 Lz       = 24.425984 Density  = 1.051004 
Volume   = 14573.242816 
---------------- Step  2440000 ----- CPU =    271.7705 (sec) ----------------
Time     = 12200000.000000 Temp     = 285.989698 Press    = 2346.362119 
PotEng   = -8.496231 KinEng   = 0.850816 Lx       = 24.298003 
Ly       = 24.298003 Lz       = 24.298003 Density  = 1.067699 
Volume   = 14345.369822 
---------------- Step  2450000 ----- CPU =    277.9327 (sec) ----------------
Time     = 12250000.000000 Temp     = 260.241602 Press    = -181.858913 
PotEng   = -8.605761 KinEng   = 0.774216 Lx       = 24.520179 
Ly       = 24.520179 Lz       = 24.520179 Density  = 1.038938 
Volume   = 14742.492187 
---------------- Step  2460000 ----- CPU =    284.1402 (sec) ----------------
Time     = 12300000.000000 Temp     = 288.616403 Press    = 1196.495523 
PotEng   = -8.546665 KinEng   = 0.858630 Lx       = 24.370724 
Ly       = 24.370724 Lz       = 24.370724 Density  = 1.058169 
Volume   = 14474.557663 
---------------- Step  2470000 ----- CPU =    290.2742 (sec) ----------------
Time     = 12350000.000000 Temp     = 270.800469 Press    = 680.492716 
PotEng   = -8.586675 KinEng   = 0.805628 Lx       = 24.499086 
Ly       = 24.499086 Lz       = 24.499086 Density  = 1.041624 
Volume   = 14704.478838 
---------------- Step  2480000 ----- CPU =    296.3615 (sec) ----------------
Time     = 12400000.000000 Temp     = 279.214401 Press    = 1467.625608 
PotEng   = -8.624503 KinEng   = 0.830660 Lx       = 24.529233 
Ly       = 24.529233 Lz       = 24.529233 Density  = 1.037788 
Volume   = 14758.828473 
---------------- Step  2490000 ----- CPU =    302.5229 (sec) ----------------
Time     = 12450000.000000 Temp     = 280.489586 Press    = 1765.142488 
PotEng   = -8.615709 KinEng   = 0.834453 Lx       = 24.403877 
Ly       = 24.403877 Lz       = 24.403877 Density  = 1.053863 
Volume   = 14533.709909 
---------------- Step  2500000 ----- CPU =    308.7320 (sec) ----------------
Time     = 12500000.000000 Temp     = 284.192820 Press    = 1432.795765 
PotEng   = -8.573263 KinEng   = 0.845470 Lx       = 24.532362 
Ly       = 24.532362 Lz       = 24.532362 Density  = 1.037391 
Volume   = 14764.477092 
---------------- Step  2510000 ----- CPU =    314.7363 (sec) ----------------
Time     = 12550000.000000 Temp     = 258.318977 Press    = 314.379523 
PotEng   = -8.543986 KinEng   = 0.768496 Lx       = 24.559385 
Ly       = 24.559385 Lz       = 24.559385 Density  = 1.033970 
Volume   = 14813.321472 
---------------- Step  2520000 ----- CPU =    320.7981 (sec) ----------------
Time     = 12600000.000000 Temp     = 273.051027 Press    = 1424.449743 
PotEng   = -8.599254 KinEng   = 0.812324 Lx       = 24.573517 
Ly       = 24.573517 Lz       = 24.573517 Density  = 1.032187 
Volume   = 14838.908506 
---------------- Step  2530000 ----- CPU =    326.9693 (sec) ----------------
Time     = 12650000.000000 Temp     = 269.382650 Press    = 1563.127210 
PotEng   = -8.630447 KinEng   = 0.801410 Lx       = 24.281037 
Ly       = 24.281037 Lz       = 24.281037 Density  = 1.069939 
Volume   = 14315.340554 
---------------- Step  2540000 ----- CPU =    333.1064 (sec) ----------------
Time     = 12700000.000000 Temp     = 279.107477 Press    = 1397.978501 
PotEng   = -8.515969 KinEng   = 0.830341 Lx       = 24.384356 
Ly       = 24.384356 Lz       = 24.384356 Density  = 1.056396 
Volume   = 14498.861322 
---------------- Step  2550000 ----- CPU =    339.3285 (sec) ----------------
Time     = 12750000.000000 Temp     = 270.796896 Press    = 1713.149069 
PotEng   = -8.493745 KinEng   = 0.805618 Lx       = 24.469815 
Ly       = 24.469815 Lz       = 24.469815 Density  = 1.045366 
Volume   = 14651.836883 
---------------- Step  2560000 ----- CPU =    345.3702 (sec) ----------------
Time     = 12800000.000000 Temp     = 288.353136 Press    = 315.719386 
PotEng   = -8.534621 KinEng   = 0.857847 Lx       = 24.500339 
Ly       = 24.500339 Lz       = 24.500339 Density  = 1.041464 
Volume   = 14706.735686 
---------------- Step  2570000 ----- CPU =    351.5128 (sec) ----------------
Time     = 12850000.000000 Temp     = 279.826849 Press    = 764.415744 
PotEng   = -8.516552 KinEng   = 0.832482 Lx       = 24.331328 
Ly       = 24.331328 Lz       = 24.331328 Density  = 1.063318 
Volume   = 14404.474487 
[...]
PotEng   = -8.541522 KinEng   = 0.851050 Lx       = 24.404641 
Ly       = 24.404641 Lz       = 24.404641 Density  = 1.053764 
Volume   = 14535.074618 
---------------- Step  3390000 ----- CPU =    855.8937 (sec) ----------------
Time     = 16950000.000000 Temp     = 283.523883 Press    = 923.015710 
PotEng   = -8.545413 KinEng   = 0.843480 Lx       = 24.292767 
Ly       = 24.292767 Lz       = 24.292767 Density  = 1.068389 
Volume   = 14336.096972 
---------------- Step  3400000 ----- CPU =    862.0594 (sec) ----------------
Time     = 17000000.000000 Temp     = 292.138945 Press    = 1872.586123 
PotEng   = -8.504003 KinEng   = 0.869110 Lx       = 24.610128 
Ly       = 24.610128 Lz       = 24.610128 Density  = 1.027588 
Volume   = 14905.330386 
---------------- Step  3410000 ----- CPU =    868.2290 (sec) ----------------
Time     = 17050000.000000 Temp     = 287.607040 Press    = 872.929026 
PotEng   = -8.548395 KinEng   = 0.855628 Lx       = 24.592358 
Ly       = 24.592358 Lz       = 24.592358 Density  = 1.029817 
Volume   = 14873.066841 
---------------- Step  3420000 ----- CPU =    874.5239 (sec) ----------------
Time     = 17100000.000000 Temp     = 282.848777 Press    = 1042.840296 
PotEng   = -8.642403 KinEng   = 0.841472 Lx       = 24.417463 
Ly       = 24.417463 Lz       = 24.417463 Density  = 1.052105 
Volume   = 14557.996304 
---------------- Step  3430000 ----- CPU =    880.6521 (sec) ----------------
Time     = 17150000.000000 Temp     = 278.146634 Press    = 2919.249597 
PotEng   = -8.568891 KinEng   = 0.827483 Lx       = 24.451617 
Ly       = 24.451617 Lz       = 24.451617 Density  = 1.047702 
Volume   = 14619.170772 
---------------- Step  3440000 ----- CPU =    886.8319 (sec) ----------------
Time     = 17200000.000000 Temp     = 276.408558 Press    = 1656.401574 
PotEng   = -8.465246 KinEng   = 0.822312 Lx       = 24.363760 
Ly       = 24.363760 Lz       = 24.363760 Density  = 1.059077 
Volume   = 14462.151936 
---------------- Step  3450000 ----- CPU =    892.9424 (sec) ----------------
Time     = 17250000.000000 Temp     = 289.676465 Press    = 699.798788 
PotEng   = -8.577246 KinEng   = 0.861784 Lx       = 24.578578 
Ly       = 24.578578 Lz       = 24.578578 Density  = 1.031550 
Volume   = 14848.079227 
---------------- Step  3460000 ----- CPU =    899.1070 (sec) ----------------
Time     = 17300000.000000 Temp     = 290.787195 Press    = 812.839838 
PotEng   = -8.512090 KinEng   = 0.865088 Lx       = 24.410359 
Ly       = 24.410359 Lz       = 24.410359 Density  = 1.053023 
Volume   = 14545.293461 
---------------- Step  3470000 ----- CPU =    905.1755 (sec) ----------------
Time     = 17350000.000000 Temp     = 294.752203 Press    = 1175.462577 
PotEng   = -8.609760 KinEng   = 0.876884 Lx       = 24.363312 
Ly       = 24.363312 Lz       = 24.363312 Density  = 1.059135 
Volume   = 14461.355541 
---------------- Step  3480000 ----- CPU =    911.3991 (sec) ----------------
Time     = 17400000.000000 Temp     = 292.127706 Press    = -356.952932 
PotEng   = -8.622377 KinEng   = 0.869076 Lx       = 24.562016 
Ly       = 24.562016 Lz       = 24.562016 Density  = 1.033638 
Volume   = 14818.083272 
---------------- Step  3490000 ----- CPU =    917.5703 (sec) ----------------
Time     = 17450000.000000 Temp     = 274.728334 Press    = 781.880164 
PotEng   = -8.526803 KinEng   = 0.817314 Lx       = 24.556472 
Ly       = 24.556472 Lz       = 24.556472 Density  = 1.034338 
Volume   = 14808.051656 
---------------- Step  3500000 ----- CPU =    923.7148 (sec) ----------------
Time     = 17500000.000000 Temp     = 284.927820 Press    = 123.909831 
PotEng   = -8.564239 KinEng   = 0.847657 Lx       = 24.569078 
Ly       = 24.569078 Lz       = 24.569078 Density  = 1.032747 
Volume   = 14830.868922 
---------------- Step  3510000 ----- CPU =    929.8367 (sec) ----------------
Time     = 17550000.000000 Temp     = 258.268252 Press    = 1470.661178 
PotEng   = -8.584651 KinEng   = 0.768345 Lx       = 24.427720 
Ly       = 24.427720 Lz       = 24.427720 Density  = 1.050780 
Volume   = 14576.350568 
---------------- Step  3520000 ----- CPU =    935.9191 (sec) ----------------
Time     = 17600000.000000 Temp     = 274.155461 Press    = 165.294739 
PotEng   = -8.514924 KinEng   = 0.815609 Lx       = 24.396395 
Ly       = 24.396395 Lz       = 24.396395 Density  = 1.054833 
Volume   = 14520.346556 
---------------- Step  3530000 ----- CPU =    942.0501 (sec) ----------------
Time     = 17650000.000000 Temp     = 287.493903 Press    = -159.651926 
PotEng   = -8.552439 KinEng   = 0.855291 Lx       = 24.461362 
Ly       = 24.461362 Lz       = 24.461362 Density  = 1.046450 
Volume   = 14636.657757 
---------------- Step  3540000 ----- CPU =    948.1634 (sec) ----------------
Time     = 17700000.000000 Temp     = 279.902428 Press    = 1717.331006 
PotEng   = -8.559959 KinEng   = 0.832706 Lx       = 24.348680 
Ly       = 24.348680 Lz       = 24.348680 Density  = 1.061046 
Volume   = 14435.314611 
---------------- Step  3550000 ----- CPU =    954.2950 (sec) ----------------
Time     = 17750000.000000 Temp     = 268.519291 Press    = 1586.155435 
PotEng   = -8.597734 KinEng   = 0.798842 Lx       = 24.461248 
Ly       = 24.461248 Lz       = 24.461248 Density  = 1.046465 
Volume   = 14636.451798 
---------------- Step  3560000 ----- CPU =    960.4080 (sec) ----------------
Time     = 17800000.000000 Temp     = 281.887578 Press    = 454.087719 
PotEng   = -8.590910 KinEng   = 0.838612 Lx       = 24.428416 
Ly       = 24.428416 Lz       = 24.428416 Density  = 1.050690 
Volume   = 14577.596217 
---------------- Step  3570000 ----- CPU =    966.5896 (sec) ----------------
Time     = 17850000.000000 Temp     = 292.371390 Press    = 2336.685062 
PotEng   = -8.525589 KinEng   = 0.869801 Lx       = 24.358733 
Ly       = 24.358733 Lz       = 24.358733 Density  = 1.059733 
Volume   = 14453.202767 
---------------- Step  3580000 ----- CPU =    972.7587 (sec) ----------------
Time     = 17900000.000000 Temp     = 266.852300 Press    = 654.368027 
PotEng   = -8.573085 KinEng   = 0.793882 Lx       = 24.529168 
Ly       = 24.529168 Lz       = 24.529168 Density  = 1.037796 
Volume   = 14758.711241 
---------------- Step  3590000 ----- CPU =    978.9496 (sec) ----------------
Time     = 17950000.000000 Temp     = 286.983121 Press    = 1667.996818 
PotEng   = -8.527106 KinEng   = 0.853771 Lx       = 24.483641 
Ly       = 24.483641 Lz       = 24.483641 Density  = 1.043596 
Volume   = 14676.686542 
---------------- Step  3600000 ----- CPU =    985.0675 (sec) ----------------
Time     = 18000000.000000 Temp     = 271.309833 Press    = 1410.877357 
PotEng   = -8.489892 KinEng   = 0.807144 Lx       = 24.672937 
Ly       = 24.672937 Lz       = 24.672937 Density  = 1.019760 
Volume   = 15019.744833 
---------------- Step  3610000 ----- CPU =    991.1662 (sec) ----------------
Time     = 18050000.000000 Temp     = 275.497993 Press    = 28.469368 
PotEng   = -8.504958 KinEng   = 0.819603 Lx       = 24.433025 
Ly       = 24.433025 Lz       = 24.433025 Density  = 1.050096 
Volume   = 14585.849123 
---------------- Step  3620000 ----- CPU =    997.1183 (sec) ----------------
Time     = 18100000.000000 Temp     = 272.369111 Press    = -573.740253 
PotEng   = -8.619225 KinEng   = 0.810295 Lx       = 24.557433 
Ly       = 24.557433 Lz       = 24.557433 Density  = 1.034217 
Volume   = 14809.790971 
---------------- Step  3630000 ----- CPU =   1003.2356 (sec) ----------------
Time     = 18150000.000000 Temp     = 267.412169 Press    = 588.506898 
PotEng   = -8.544574 KinEng   = 0.795548 Lx       = 24.570814 
Ly       = 24.570814 Lz       = 24.570814 Density  = 1.032528 
Volume   = 14834.011545 
---------------- Step  3640000 ----- CPU =   1009.4137 (sec) ----------------
Time     = 18200000.000000 Temp     = 296.074725 Press    = 1018.342253 
PotEng   = -8.560816 KinEng   = 0.880819 Lx       = 24.464315 
Ly       = 24.464315 Lz       = 24.464315 Density  = 1.046071 
Volume   = 14641.958826 
---------------- Step  3650000 ----- CPU =   1015.6501 (sec) ----------------
Time     = 18250000.000000 Temp     = 296.029728 Press    = 762.551254 
PotEng   = -8.565040 KinEng   = 0.880685 Lx       = 24.464596 
Ly       = 24.464596 Lz       = 24.464596 Density  = 1.046035 
Volume   = 14642.463581 
---------------- Step  3660000 ----- CPU =   1021.9140 (sec) ----------------
Time     = 18300000.000000 Temp     = 267.016207 Press    = -88.692464 
PotEng   = -8.559108 KinEng   = 0.794370 Lx       = 24.592975 
Ly       = 24.592975 Lz       = 24.592975 Density  = 1.029739 
Volume   = 14874.186143 
---------------- Step  3670000 ----- CPU =   1028.1069 (sec) ----------------
Time     = 18350000.000000 Temp     = 272.106703 Press    = 1320.576525 
PotEng   = -8.585640 KinEng   = 0.809514 Lx       = 24.339271 
Ly       = 24.339271 Lz       = 24.339271 Density  = 1.062277 
Volume   = 14418.586461 
---------------- Step  3680000 ----- CPU =   1034.2824 (sec) ----------------
Time     = 18400000.000000 Temp     = 278.127206 Press    = 1020.586741 
PotEng   = -8.482498 KinEng   = 0.827425 Lx       = 24.512636 
Ly       = 24.512636 Lz       = 24.512636 Density  = 1.039897 
Volume   = 14728.891747 
---------------- Step  3690000 ----- CPU =   1040.4117 (sec) ----------------
Time     = 18450000.000000 Temp     = 290.178488 Press    = 591.773289 
PotEng   = -8.563101 KinEng   = 0.863278 Lx       = 24.416149 
Ly       = 24.416149 Lz       = 24.416149 Density  = 1.052274 
Volume   = 14555.647275 
---------------- Step  3700000 ----- CPU =   1046.5154 (sec) ----------------
Time     = 18500000.000000 Temp     = 270.257130 Press    = 149.237698 
PotEng   = -8.597133 KinEng   = 0.804012 Lx       = 24.468474 
Ly       = 24.468474 Lz       = 24.468474 Density  = 1.045538 
Volume   = 14649.426698 
---------------- Step  3710000 ----- CPU =   1052.7965 (sec) ----------------
Time     = 18550000.000000 Temp     = 278.613769 Press    = 170.808050 
PotEng   = -8.564332 KinEng   = 0.828873 Lx       = 24.597719 
Ly       = 24.597719 Lz       = 24.597719 Density  = 1.029144 
Volume   = 14882.795525 
---------------- Step  3720000 ----- CPU =   1058.9135 (sec) ----------------
Time     = 18600000.000000 Temp     = 289.283481 Press    = 1048.249341 
PotEng   = -8.542895 KinEng   = 0.860615 Lx       = 24.413938 
Ly       = 24.413938 Lz       = 24.413938 Density  = 1.052560 
Volume   = 14551.692190 
---------------- Step  3730000 ----- CPU =   1065.1087 (sec) ----------------
Time     = 18650000.000000 Temp     = 267.056437 Press    = 1020.815454 
PotEng   = -8.625101 KinEng   = 0.794490 Lx       = 24.505131 
Ly       = 24.505131 Lz       = 24.505131 Density  = 1.040853 
Volume   = 14715.367301 
---------------- Step  3740000 ----- CPU =   1071.3190 (sec) ----------------
Time     = 18700000.000000 Temp     = 272.009956 Press    = 1297.308532 
PotEng   = -8.512308 KinEng   = 0.809226 Lx       = 24.430244 
Ly       = 24.430244 Lz       = 24.430244 Density  = 1.050454 
Volume   = 14580.868294 
---------------- Step  3750000 ----- CPU =   1077.3759 (sec) ----------------
Time     = 18750000.000000 Temp     = 275.379895 Press    = 2766.831697 
PotEng   = -8.521416 KinEng   = 0.819252 Lx       = 24.531167 
Ly       = 24.531167 Lz       = 24.531167 Density  = 1.037542 
Volume   = 14762.320517 
---------------- Step  3760000 ----- CPU =   1083.5269 (sec) ----------------
Time     = 18800000.000000 Temp     = 285.601011 Press    = 163.710087 
PotEng   = -8.544477 KinEng   = 0.849660 Lx       = 24.430769 
Ly       = 24.430769 Lz       = 24.430769 Density  = 1.050386 
Volume   = 14581.808456 
---------------- Step  3770000 ----- CPU =   1089.8629 (sec) ----------------
Time     = 18850000.000000 Temp     = 298.496913 Press    = 1601.132544 
PotEng   = -8.573460 KinEng   = 0.888025 Lx       = 24.380593 
Ly       = 24.380593 Lz       = 24.380593 Density  = 1.056885 
Volume   = 14492.149397 
---------------- Step  3780000 ----- CPU =   1095.9842 (sec) ----------------
Time     = 18900000.000000 Temp     = 281.756415 Press    = 635.654782 
PotEng   = -8.541642 KinEng   = 0.838222 Lx       = 24.623984 
Ly       = 24.623984 Lz       = 24.623984 Density  = 1.025854 
Volume   = 14930.521625 
---------------- Step  3790000 ----- CPU =   1102.1658 (sec) ----------------
Time     = 18950000.000000 Temp     = 273.899601 Press    = 1861.016696 
PotEng   = -8.583264 KinEng   = 0.814848 Lx       = 24.411373 
Ly       = 24.411373 Lz       = 24.411373 Density  = 1.052892 
Volume   = 14547.105960 
---------------- Step  3800000 ----- CPU =   1108.2875 (sec) ----------------
Time     = 19000000.000000 Temp     = 274.016311 Press    = 16.565241 
PotEng   = -8.575821 KinEng   = 0.815195 Lx       = 24.637206 
Ly       = 24.637206 Lz       = 24.637206 Density  = 1.024203 
Volume   = 14954.584145 
---------------- Step  3810000 ----- CPU =   1114.3905 (sec) ----------------
Time     = 19050000.000000 Temp     = 287.976674 Press    = 688.165119 
PotEng   = -8.579584 KinEng   = 0.856727 Lx       = 24.467442 
Ly       = 24.467442 Lz       = 24.467442 Density  = 1.045670 
Volume   = 14647.573463 
---------------- Step  3820000 ----- CPU =   1120.5767 (sec) ----------------
Time     = 19100000.000000 Temp     = 272.560221 Press    = 929.017928 
PotEng   = -8.552726 KinEng   = 0.810863 Lx       = 24.424446 
Ly       = 24.424446 Lz       = 24.424446 Density  = 1.051202 
Volume   = 14570.491065 
---------------- Step  3830000 ----- CPU =   1126.7237 (sec) ----------------
Time     = 19150000.000000 Temp     = 295.583898 Press    = 1150.174324 
PotEng   = -8.570708 KinEng   = 0.879359 Lx       = 24.362402 
Ly       = 24.362402 Lz       = 24.362402 Density  = 1.059254 
Volume   = 14459.734348 
---------------- Step  3840000 ----- CPU =   1132.7158 (sec) ----------------
Time     = 19200000.000000 Temp     = 285.676556 Press    = 1450.047588 
PotEng   = -8.504577 KinEng   = 0.849884 Lx       = 24.393884 
Ly       = 24.393884 Lz       = 24.393884 Density  = 1.055158 
Volume   = 14515.863055 
---------------- Step  3850000 ----- CPU =   1138.8571 (sec) ----------------
Time     = 19250000.000000 Temp     = 291.176884 Press    = 2513.821041 
PotEng   = -8.511026 KinEng   = 0.866248 Lx       = 24.544508 
Ly       = 24.544508 Lz       = 24.544508 Density  = 1.035852 
Volume   = 14786.418718 
---------------- Step  3860000 ----- CPU =   1145.0190 (sec) ----------------
Time     = 19300000.000000 Temp     = 272.364044 Press    = 360.661170 
PotEng   = -8.592770 KinEng   = 0.810280 Lx       = 24.500134 
Ly       = 24.500134 Lz       = 24.500134 Density  = 1.041490 
Volume   = 14706.365981 
---------------- Step  3870000 ----- CPU =   1151.0956 (sec) ----------------
Time     = 19350000.000000 Temp     = 290.011392 Press    = 1794.842901 
PotEng   = -8.633440 KinEng   = 0.862780 Lx       = 24.306806 
Ly       = 24.306806 Lz       = 24.306806 Density  = 1.066539 
Volume   = 14360.966222 
---------------- Step  3880000 ----- CPU =   1157.2816 (sec) ----------------
Time     = 19400000.000000 Temp     = 281.813025 Press    = 1795.975728 
PotEng   = -8.507617 KinEng   = 0.838390 Lx       = 24.378697 
Ly       = 24.378697 Lz       = 24.378697 Density  = 1.057132 
Volume   = 14488.768509 
---------------- Step  3890000 ----- CPU =   1163.4650 (sec) ----------------
Time     = 19450000.000000 Temp     = 278.895492 Press    = 955.817002 
PotEng   = -8.567635 KinEng   = 0.829711 Lx       = 24.520672 
Ly       = 24.520672 Lz       = 24.520672 Density  = 1.038875 
Volume   = 14743.382408 
---------------- Step  3900000 ----- CPU =   1169.6033 (sec) ----------------
Time     = 19500000.000000 Temp     = 267.966251 Press    = 2553.723947 
PotEng   = -8.558472 KinEng   = 0.797196 Lx       = 24.361949 
Ly       = 24.361949 Lz       = 24.361949 Density  = 1.059313 
Volume   = 14458.927229 
---------------- Step  3910000 ----- CPU =   1175.7170 (sec) ----------------
Time     = 19550000.000000 Temp     = 285.206370 Press    = 1790.173382 
PotEng   = -8.577834 KinEng   = 0.848486 Lx       = 24.476009 
Ly       = 24.476009 Lz       = 24.476009 Density  = 1.044573 
Volume   = 14662.966241 
---------------- Step  3920000 ----- CPU =   1181.6641 (sec) ----------------
Time     = 19600000.000000 Temp     = 277.829972 Press    = 1336.447468 
PotEng   = -8.599844 KinEng   = 0.826541 Lx       = 24.459319 
Ly       = 24.459319 Lz       = 24.459319 Density  = 1.046713 
Volume   = 14632.990743 
---------------- Step  3930000 ----- CPU =   1187.6151 (sec) ----------------
Time     = 19650000.000000 Temp     = 286.760498 Press    = 2149.798659 
PotEng   = -8.577078 KinEng   = 0.853109 Lx       = 24.420894 
Ly       = 24.420894 Lz       = 24.420894 Density  = 1.051661 
Volume   = 14564.135051 
---------------- Step  3940000 ----- CPU =   1193.5639 (sec) ----------------
Time     = 19700000.000000 Temp     = 281.962606 Press    = 2012.594422 
PotEng   = -8.492426 KinEng   = 0.838835 Lx       = 24.466359 
Ly       = 24.466359 Lz       = 24.466359 Density  = 1.045809 
Volume   = 14645.629732 
---------------- Step  3950000 ----- CPU =   1199.6114 (sec) ----------------
Time     = 19750000.000000 Temp     = 259.099489 Press    = 1021.646446 
PotEng   = -8.597494 KinEng   = 0.770818 Lx       = 24.568120 
Ly       = 24.568120 Lz       = 24.568120 Density  = 1.032868 
Volume   = 14829.133337 
---------------- Step  3960000 ----- CPU =   1205.5528 (sec) ----------------
Time     = 19800000.000000 Temp     = 269.192125 Press    = 1115.178855 
PotEng   = -8.569645 KinEng   = 0.800843 Lx       = 24.463163 
Ly       = 24.463163 Lz       = 24.463163 Density  = 1.046219 
Volume   = 14639.890847 
---------------- Step  3970000 ----- CPU =   1211.5785 (sec) ----------------
Time     = 19850000.000000 Temp     = 295.229720 Press    = 1388.481713 
PotEng   = -8.544998 KinEng   = 0.878305 Lx       = 24.428924 
Ly       = 24.428924 Lz       = 24.428924 Density  = 1.050624 
Volume   = 14578.505347 
---------------- Step  3980000 ----- CPU =   1217.5750 (sec) ----------------
Time     = 19900000.000000 Temp     = 261.126949 Press    = 927.118003 
PotEng   = -8.534363 KinEng   = 0.776850 Lx       = 24.591379 
Ly       = 24.591379 Lz       = 24.591379 Density  = 1.029940 
Volume   = 14871.289949 
---------------- Step  3990000 ----- CPU =   1223.6655 (sec) ----------------
Time     = 19950000.000000 Temp     = 283.337682 Press    = 1289.215786 
PotEng   = -8.574348 KinEng   = 0.842926 Lx       = 24.555628 
Ly       = 24.555628 Lz       = 24.555628 Density  = 1.034445 
Volume   = 14806.525466 
---------------- Step  4000000 ----- CPU =   1229.7316 (sec) ----------------
Time     = 20000000.000000 Temp     = 295.177389 Press    = 1192.230881 
PotEng   = -8.638444 KinEng   = 0.878149 Lx       = 24.500299 
Ly       = 24.500299 Lz       = 24.500299 Density  = 1.041469 
Volume   = 14706.664090 
Loop time of 1229.73 on 6 procs for 2000000 steps with 512 atoms

Performance: 702.592 ns/day, 0.034 hours/ns, 1626.371 timesteps/s
99.8% CPU use with 6 MPI tasks x no OpenMP threads

MPI task timing breakdown:
Section |  min time  |  avg time  |  max time  |%varavg| %total
---------------------------------------------------------------
Pair    | 992.4      | 1025.2     | 1056.8     |  88.6 | 83.37
Neigh   | 16.882     | 17.394     | 17.89      |  11.5 |  1.41
Comm    | 131.69     | 164.44     | 198.61     | 226.3 | 13.37
Output  | 0.0050513  | 0.010319   | 0.036593   |  11.6 |  0.00
Modify  | 18.185     | 18.813     | 19.65      |  11.6 |  1.53
Other   |            | 3.851      |            |       |  0.31

Nlocal:    85.3333 ave 88 max 82 min
Histogram: 1 0 0 1 0 0 3 0 0 1
Nghost:    479.5 ave 482 max 476 min
Histogram: 1 1 0 0 0 1 0 0 1 2
Neighs:    0 ave 0 max 0 min
Histogram: 6 0 0 0 0 0 0 0 0 0
FullNghs:  2082.33 ave 2193 max 1964 min
Histogram: 1 0 0 1 1 1 0 1 0 1

Total # of neighbors = 12494
Ave neighs/atom = 24.4023
Neighbor list builds = 115293
Dangerous builds = 0
System init for write_data ...
Total wall time: 0:41:00
