LAMMPS data file via write_data, version 4 Jan 2019, timestep = 5000000

512 atoms
1 atom types

-3.1588460817172148e-02 2.4866588460822534e+01 xlo xhi
-3.1588460817172148e-02 2.4866588460822534e+01 ylo yhi
-3.1588460817172148e-02 2.4866588460822534e+01 zlo zhi

Masses

1 18.0153

Atoms # atomic

411 1 8.8081780335738358e-01 2.3194544529313230e+00 1.8764390631986134e+00 31 108 167
100 1 2.3937180257990914e+01 8.4463631271349300e+00 7.9442409463252321e+00 38 -123 -24
363 1 1.8661803997198543e+01 7.0725253457716555e+00 1.5303755379289203e+00 -8 -30 27
217 1 1.1952184388476086e+01 1.0677985934239242e+01 7.1942364116062905e+00 99 -46 79
72 1 1.0349423119090126e+01 1.2031251663705358e+01 5.1525221854519057e+00 24 61 43
103 1 3.2346495136656359e+00 1.0770489578596580e+01 5.0531680894709767e+00 -31 39 -58
465 1 8.2863703832383546e+00 4.0263726149683325e+00 4.3819768759211000e+00 20 42 25
388 1 2.2392685241311798e+00 1.2229147976964207e+01 2.6444707160136294e+00 68 5 41
175 1 5.6956566265693480e+00 4.8467091674130103e+00 3.0931759857677550e+00 44 8 -16
297 1 1.0303791929171744e+01 3.6418312113470228e+00 2.6104933327215902e+00 8 21 -18
330 1 1.5972175988033699e+00 7.8544333050184978e+00 5.3436764863235213e+00 -2 25 20
471 1 1.9701381617857734e+01 5.3133466499475379e-01 1.3119588672824471e+00 -100 -16 28
126 1 2.2667346380809885e+01 9.4756629543365722e+00 3.2347454238258204e+00 -26 -26 -37
393 1 1.0043304241590063e+01 7.6179317283327439e+00 2.5346772531391291e+00 88 53 -95
462 1 2.0252820854806375e+00 3.6278704343792065e+00 5.6622660925475214e+00 -79 10 38
361 1 1.8822046889405009e+01 1.2211167537645940e+01 7.4597799919532486e+00 -50 109 -12
184 1 7.0250947971739848e+00 5.8772644253322790e+00 8.1370459132238810e+00 -10 11 30
394 1 5.3151921639438662e+00 1.2078955266664016e+01 6.8494099311477399e+00 -111 3 -14
509 1 1.8963059276685314e+01 3.2620580824524619e+00 1.3423246508323272e+00 120 46 -70
95 1 1.3841408108561184e+01 5.0246039583871323e+00 1.4648695921733250e+00 59 133 -3
162 1 1.5484063866385043e+01 7.2104107603715111e+00 1.9712332440226774e+00 -52 5 6
343 1 2.1397458501578665e+01 5.0082906147419415e+00 7.1567261550247672e+00 -56 18 144
144 1 4.1068405092614153e+00 9.0008762943603404e+00 3.1843061130063406e+00 -30 41 51
33 1 1.3117406029789281e+01 1.2044240698193535e+01 3.7822108016713862e+00 -98 -44 -12
45 1 2.2178840989759831e+01 1.0007652653458146e+01 6.0455609257124987e+00 -10 75 -80
326 1 8.9015832071191703e+00 1.2194030536720106e+00 5.0407802015895031e+00 40 116 0
287 1 2.4735656052455443e+01 1.2247792624996409e+01 1.1199318509100176e+00 -10 -5 -15
123 1 2.4606614276460018e+01 7.2998426627720914e+00 3.4142809215888592e+00 -70 -9 -2
11 1 7.8049132438069293e+00 8.3273975025518858e+00 1.5200081175853830e+00 29 73 -60
23 1 2.5153527432088283e+00 8.5526862403652171e+00 1.1433306727461752e+00 53 43 3
225 1 1.4210215069745560e+01 9.5390183905332826e+00 3.4225245998364433e+00 20 77 8
241 1 7.9245994788339393e+00 9.9260514365492725e+00 5.4661003502421934e+00 2 -118 -27
44 1 3.1210848266144251e+00 3.6197679159005349e+00 1.6779653651049373e+00 -18 -17 91
418 1 1.6228757528131326e+00 6.0394605644748447e+00 1.4236477582184142e+00 -73 -60 -27
438 1 7.3476555116121123e-01 1.0301341014317304e+01 6.1602402286471509e+00 28 -17 -56
313 1 2.0203771791673670e+01 1.0214037628443577e+01 2.3649435505944214e+00 -45 33 39
390 1 6.3497788774386468e+00 6.4967496284795310e+00 7.7202291516722665e-01 -4 -39 -18
73 1 4.1997387430864350e+00 1.8374561629577051e+00 5.7884692430092795e+00 -60 12 6
349 1 1.5731936675002057e+01 2.6873572977522504e+00 5.0572822740609444e+00 13 31 49
301 1 8.0674657610468294e+00 1.1854308028002585e+01 7.5763746866978599e+00 116 30 26
475 1 1.4754221013883994e+01 1.9977081788244160e+00 2.7443887520748849e+00 18 -21 -24
9 1 2.4852052493138515e+01 2.8064850642974961e+00 4.4515424280524565e+00 -44 39 24
40 1 8.4568939383208743e+00 2.1491679751554651e+00 7.7746405087724062e+00 -4 52 64
233 1 4.2586767165745556e+00 6.7378745157099864e+00 4.6612233590525305e+00 -11 -47 -32
499 1 2.4106871319445762e+01 1.1670521184527788e+01 3.7880753906118190e+00 33 -21 -68
99 1 1.5562396583965965e+01 2.3835422324437844e-01 6.4391886037933395e+00 3 -5 48
439 1 1.3013037033705208e+01 9.3750265906407062e+00 9.4302178950715532e-01 31 -51 -90
366 1 9.2489394183116467e+00 5.7083302369375089e+00 6.4112573941820772e+00 156 -17 -55
437 1 1.1527357854709162e+00 5.9548288395378099e+00 6.9752742653288191e+00 18 5 -112
493 1 1.2821882286076725e+01 1.9409051211113004e+00 7.3950301955438000e+00 -49 99 36
369 1 1.0655925995930657e+01 1.0548418483571201e+01 2.3806390833510487e+00 -3 62 5
97 1 2.1675118170923767e+01 1.9614734789973218e+00 7.7726468081056321e+00 29 59 -3
231 1 2.0883297096526885e+01 5.2584005269301484e+00 2.4660590213430376e+00 -35 16 53
26 1 1.3301586582462688e+01 8.0953327066379579e+00 5.7334642777559406e+00 -4 8 67
150 1 1.6115383661432357e+01 3.1462648465544891e+00 7.2144462991911085e-01 79 -27 67
214 1 1.8697403734549059e+01 2.1248999026643292e+00 5.2459376284333121e+00 15 99 -3
200 1 4.3778527351258223e+00 1.4936281624324246e+00 2.8959049964191728e+00 69 95 -21
229 1 1.1405164197642097e+01 4.6731571854967463e-01 5.1670386987161647e+00 54 27 26
255 1 1.0172605475445174e+01 8.3582943670947447e+00 5.3483041878892408e+00 -142 7 78
13 1 2.2234474613865306e+01 2.5169002476995654e+00 2.5721488297244481e+00 132 -13 85
423 1 6.9597584230610501e+00 1.3871282472903526e+00 2.3684756531891287e+00 -20 0 66
433 1 1.9612056596628285e+01 4.7958330647794343e+00 4.8755094366305753e+00 19 -56 -46
59 1 1.3570512056184459e+01 4.3907326356735243e+00 5.8558017235123234e+00 45 -96 54
473 1 1.5505244612161897e+01 6.3361316480688465e+00 6.7880770542981157e+00 -34 -36 69
263 1 1.9521634128466779e+01 9.2756155093610335e+00 6.8057404787776452e+00 34 139 5
425 1 6.2744682429412117e+00 3.7355101587499600e+00 6.2497468256112247e+00 69 33 -6
63 1 2.3290458156599247e+01 5.0873958767048792e+00 4.6713000504706823e+00 12 -2 -100
495 1 1.0721939789778986e+01 4.2758788407866533e+00 7.9794375756916711e+00 -27 11 -55
279 1 1.2150879458736119e+01 5.5875380999256148e+00 3.7784884561857974e+00 -38 161 49
323 1 2.2617889546990945e+01 6.4742966925296814e+00 8.5625380616263147e-01 13 -116 16
121 1 1.6463596990470812e+01 1.0693126485484253e+01 4.0596414187427570e+00 -17 -1 8
460 1 5.6733497760218112e+00 8.3074795147542790e+00 6.9002449762632532e+00 -124 134 30
190 1 1.2071416385341992e+01 1.6601196085780603e+00 2.8623460247840278e+00 89 87 30
170 1 1.7153788869415120e+01 6.3801828016250512e+00 4.4382625670329867e+00 6 38 -25
107 1 6.6043877649724108e+00 1.0331537346884593e+01 2.9921305570673131e+00 -31 53 -130
41 1 1.8607901559980917e+01 8.8687601649289061e+00 4.1606437624948009e+00 63 -22 26
250 1 2.4212583408831684e+01 4.8002095934531253e-02 5.1839147208224121e+00 -14 32 176
101 1 2.1512531486593794e+01 1.0455456412714357e+00 5.2103034222074394e+00 -34 -21 64
354 1 3.9156410721890937e+00 5.4016085496005060e+00 7.9653917262208127e+00 0 48 18
50 1 2.0142064404831920e+01 8.9989091887574997e+00 7.0670284119471460e-04 7 30 -30
167 1 1.1651231899964005e+01 6.8837469303697674e+00 6.5537758339894933e-03 15 -7 13
169 1 3.9603059497837063e+00 1.1466694139904867e+01 1.1344049914433996e-01 4 36 10
486 1 1.0918511757290075e+01 1.0916424750654130e-02 1.0769272291384469e+00 44 13 -25
248 1 2.2504916558461559e+01 1.0638548449670919e+01 1.5327410563711441e+01 -49 26 -4
459 1 1.0622949076271432e+01 9.0477994533766393e-01 9.2978965576482437e+00 57 -21 52
198 1 1.0607435506580053e+01 4.4457679269236099e+00 1.2980660972855626e+01 -36 46 24
510 1 2.2410473181857714e+01 5.4178024723340101e-01 1.2021420162088125e+01 -66 144 43
328 1 1.1046102956730316e+01 1.0304608335038015e+01 1.2947819874764384e+01 88 84 -8
221 1 1.5400604798291779e+01 1.0115333493503534e-02 1.2713819893157918e+01 6 4 46
211 1 2.4752387100546121e-02 4.6109254262576718e+00 1.4954000138727640e+01 -33 7 -10
293 1 1.8698944170310472e+01 5.1942872247385372e+00 1.5737166424051821e+01 11 126 57
290 1 1.2984008739931813e+01 7.8648663218202284e+00 1.0067227021907188e+01 -3 -94 -70
226 1 9.6254187686733381e+00 9.7104895507379112e+00 1.6205545124461068e+01 -5 0 10
483 1 1.7240286161642857e+01 6.5231900964685892e+00 1.3086061733771402e+01 42 46 12
455 1 1.6498793524086706e+00 7.3955266067564320e+00 1.0028980023758518e+01 49 100 31
342 1 1.4848369497282197e+00 1.1565684662573588e+01 8.5168785673774892e+00 32 -12 16
239 1 5.7300128964387849e+00 1.0387724861940317e+01 1.5000290229819946e+01 56 -13 5
377 1 1.4035850360269201e+01 3.7802713132579893e+00 1.5969315003268811e+01 11 19 -110
491 1 1.7271238112076809e+01 1.1160442133877199e+01 1.2435104613491113e+01 -38 -29 -23
98 1 8.6971152722237726e+00 2.1432031104664033e+00 1.5716296158174799e+01 72 75 -10
216 1 4.0651473485786660e+00 1.1244197510435159e+01 9.1210091067809973e+00 -35 -13 164
20 1 2.4972849830718213e+00 5.5971925987577382e+00 1.5823659480952974e+01 117 30 18
159 1 1.8559881352551603e+01 2.0887538998699045e+00 1.2126923935619603e+01 -52 57 101
441 1 8.4849684116251716e+00 8.4103398855746452e+00 1.2490371386146382e+01 3 -69 -18
430 1 2.0508439577392497e+00 1.2059070648161573e+01 1.3387450962925033e+01 50 45 4
178 1 2.3744565877941756e+01 7.1141162448314841e+00 1.4343768588197369e+01 59 32 -52
383 1 1.9991008769759244e+01 6.5825131414607607e-02 1.0719643756355605e+01 -48 92 -17
397 1 1.8037038944785323e+01 7.9393738444229029e+00 1.1006599874225815e+01 -48 46 -39
322 1 2.5895491516327938e+00 2.4083280296921261e+00 1.1449096728399196e+01 26 50 -10
114 1 2.0166904018211508e+01 9.3973968627350075e+00 1.4474651501532312e+01 -9 9 -14
401 1 7.9869331068362097e+00 1.1136131770605324e+01 1.0211055577800792e+01 28 -4 22
283 1 1.9818019116580508e+01 4.0917049301782420e+00 9.5356172557806786e+00 84 -39 66
440 1 9.2736438526259199e+00 4.9137762233736764e+00 1.0150663218794900e+01 -26 -30 105
344 1 5.3606191762686572e+00 1.7964415345889118e+00 1.5775631381054248e+01 39 -41 13
413 1 1.1847943107526001e+01 1.8764722536354956e+00 1.1475646340678599e+01 -10 15 -29
228 1 1.5773202405475883e+00 9.3345529511242606e+00 1.6168466737799715e+01 -29 19 12
468 1 2.0068065522821481e+01 9.9690030013848254e+00 1.1761245570150175e+01 62 9 -47
371 1 2.1760670882174999e+01 5.9608770032573615e+00 1.6088672324065275e+01 -83 34 -55
362 1 2.2148317207250834e+01 8.8520404968411714e+00 1.0083578636556403e+01 -54 -13 -57
422 1 5.7351782451275168e+00 5.2012286891764414e-01 9.3652590954204342e+00 -3 80 63
3 1 1.6465155224206271e+01 3.6442637886230207e+00 1.5030326692489535e+01 15 49 34
102 1 1.5234095832391214e+01 9.1842376809102575e+00 1.2064064756487618e+01 7 -11 14
359 1 1.4358477893834083e+01 1.0220103821528490e+01 9.5680506484243359e+00 -40 42 3
315 1 1.8439257129240023e+01 1.1605680178870688e+01 1.4684976168554288e+01 -66 97 76
194 1 3.0850590432690002e+00 5.2483433350624660e+00 1.1268241920874161e+01 41 114 11
193 1 6.3730258018650368e+00 1.3619327283072891e+00 1.3008439774089219e+01 -81 28 1
284 1 2.1077355094661097e+01 5.0150344861907543e+00 1.1602126360994124e+01 -86 -63 -15
109 1 7.3309901656055070e+00 8.4830521912196417e+00 1.6166118364936885e+01 -91 -34 -47
153 1 1.7210299550344480e+01 4.9404520250722115e+00 9.2034960263694092e+00 9 -14 73
77 1 2.4149484540081801e+01 2.7644248971683241e+00 9.1267636803446859e+00 48 -46 -3
93 1 6.8573797739267874e+00 6.8999490981587774e+00 1.4246590687876084e+01 -35 -23 3
454 1 1.0692748234816381e+01 6.9934168886906782e+00 1.1198327585051803e+01 -50 49 21
325 1 1.7399610065340053e+01 1.1585685557591729e+00 1.4508911831450190e+01 -73 27 33
442 1 1.4022677025312793e+00 7.9214811642736676e+00 1.3963367475401286e+01 20 -7 -105
8 1 1.3377649781651968e+01 5.2043082267347938e+00 8.8665599897841716e+00 -35 21 -36
122 1 1.1896492203502619e+01 1.7297901627023484e+00 1.5259072585077048e+01 5 8 12
407 1 1.3795047926603452e+01 1.0742957998879952e+01 1.3524111861808631e+01 20 5 70
477 1 1.9085374070764193e+01 1.2872978578563425e+00 8.3455221297072413e+00 31 -16 33
12 1 4.0646160956396464e+00 6.4880776010167400e+00 1.3578086660300114e+01 48 -40 62
29 1 2.4430860314000697e+01 1.0880720449339154e+01 1.0340767692378735e+01 51 -32 -28
160 1 1.4325614884782834e+00 2.1558300409272100e+00 1.3823117193434380e+01 -18 52 45
435 1 2.3970532592389173e+01 3.4037839456500727e+00 1.2047652394984906e+01 -52 -14 -10
136 1 1.0920512356505055e+01 1.0304146698799903e+01 1.0048029665069299e+01 27 -59 107
141 1 4.4085426446538101e+00 9.7045548977946545e+00 1.2592439395545350e+01 106 74 -17
125 1 2.3391880301346141e+01 6.5339132999085638e+00 1.1495038375789925e+01 -63 -50 -11
209 1 6.2615293276729478e+00 9.0048800183544113e+00 1.0905655759865036e+01 12 21 -37
488 1 1.4063844339238148e+01 6.2228578705792339e+00 1.1964463328238718e+01 -18 -12 20
247 1 2.3677988465873678e+01 6.6274971163158181e-01 1.6204832648173184e+01 16 -14 -2
494 1 1.6545763186943230e+01 4.1122004696596983e+00 1.1829283718564612e+01 -16 69 -89
268 1 1.4197573681892523e+01 3.3227327859906821e+00 1.0298055221063052e+01 -121 -9 4
312 1 3.1830647337788966e+00 1.1491064661133921e+01 1.6096588962499595e+01 -13 12 20
292 1 1.5488218768414137e+00 9.6499443996651433e+00 1.1871497024030266e+01 -15 31 60
81 1 2.0039505069198661e+01 6.3553430688534318e+00 1.3482825700386478e+01 44 104 -19
35 1 1.2698222740004324e+01 1.0256543030676257e-01 1.3323763196126473e+01 -55 25 -53
242 1 1.2773878098675700e+01 5.7208365427920214e+00 1.4350627567570818e+01 27 -4 -45
260 1 2.1330105808995199e+01 2.7418843966751973e+00 1.3195664296362235e+01 -32 3 65
503 1 3.9240994919255185e+00 8.4598972898631377e+00 9.1544268958126445e+00 -2 -8 19
384 1 1.9812795844335338e+00 1.7137970873938162e+00 8.9198001908555717e+00 0 4 23
364 1 7.0655782623228491e+00 2.9912576250404852e+00 1.0249909530431268e+01 116 12 0
134 1 6.2935870037041974e+00 5.7599712412566717e+00 1.1000696440406106e+01 -79 -1 13
402 1 2.1761987386337317e+01 2.8853582991315934e+00 1.5757923365374010e+01 18 59 -32
391 1 1.6091675750492360e+01 2.3431106954746248e+00 8.3747472523134743e+00 -63 -45 0
381 1 8.7201081839973842e+00 4.5521388035713768e+00 1.4880015505495326e+01 25 -117 31
511 1 2.9811658122087805e+00 4.1540336796500804e-01 1.5598779660312545e+01 46 4 104
147 1 1.2107756106556520e+01 8.1499547814456363e+00 1.5333851694879867e+01 -25 32 94
269 1 2.2145124303653141e+01 1.1728612060787187e+01 8.4984684159717219e+00 27 -36 9
319 1 1.9938163297055254e+01 7.2037887651064905e+00 8.6128065632460764e+00 -35 -3 49
480 1 1.4275659938670909e+01 1.0631293865599856e+01 1.6410828615654559e+01 9 -49 76
15 1 2.3898073625531651e+01 5.4828037876272271e+00 8.8961975534079905e+00 11 -5 -143
367 1 1.6856655071613030e+01 8.8820308737575555e+00 8.3541798295652292e+00 3 17 68
163 1 1.8343684955466394e+01 1.2633641173504823e-01 2.4110313046323920e+01 -37 -53 5
347 1 1.6682446525921492e+01 2.9363535381346102e+00 2.1031820811497376e+01 -120 1 -5
386 1 1.4750221752316126e+01 1.2838105441891896e+00 2.1821339369777725e+01 89 -37 0
316 1 2.1802581733398821e+01 2.8833432778335979e+00 2.2718257710101394e+01 41 126 75
151 1 2.0271737843266751e+00 5.3776959748776108e+00 2.0964018641832151e+01 -33 -44 -7
266 1 1.0680503227592371e+01 9.1397132579037788e+00 2.0893050518682934e+01 21 -56 17
352 1 1.3748475689702056e+01 7.6183611939651277e+00 1.7500657338853159e+01 38 -47 -64
289 1 1.7006346175767796e+01 1.9473572066991180e+00 1.7638409211967257e+01 -30 -5 -49
34 1 2.3185233189307215e+01 1.0525942191850499e+01 1.9680069781994078e+01 -115 -8 131
281 1 5.7659503496309030e+00 7.3688900514606610e+00 1.8542289225703026e+01 17 -25 97
113 1 4.4805840069801341e+00 7.8007044875228093e+00 2.4426867662601964e+01 -44 21 82
5 1 2.1537598600401036e+01 2.7167462577191365e-01 2.0846764920958599e+01 49 43 -7
28 1 7.6057006310182684e-01 1.6900601639329860e+00 2.2164603563882537e+01 13 39 26
424 1 2.3710545538136525e+01 8.8295026827206229e+00 1.7249027074924069e+01 34 -2 -12
496 1 9.8586616226937096e+00 1.1118620862917382e+01 1.8839430678808363e+01 0 -15 10
219 1 1.2245292693913932e+01 1.9506571565843092e+00 2.1495268237574322e+01 -34 -6 -109
83 1 2.4709310502383204e+01 3.8312307506158323e+00 1.7565842022210056e+01 39 8 9
406 1 3.2590136277552730e+00 1.5195408097360135e+00 2.2916132595053291e+01 38 139 5
306 1 1.2944991085914980e+01 4.9569972912448756e+00 2.3223731421723620e+01 10 59 -65
370 1 8.3776177594544574e+00 1.1007289789191528e+00 2.2437566442394594e+01 -39 105 31
232 1 5.6072128341503085e+00 1.0889157778801067e+01 2.0970699095624585e+01 107 31 45
55 1 7.0097701316868033e+00 2.9141638454956680e+00 2.1057279097486667e+01 28 67 -23
382 1 1.6340395821648354e+01 8.6733473180287941e+00 1.7967669372866595e+01 32 -6 49
282 1 1.9629542224332067e+01 3.8154810452041907e+00 2.3935884975360064e+01 32 37 81
469 1 1.6105615075962245e+01 7.4758887499663063e+00 2.4170098121375588e+01 42 22 22
155 1 1.8376272642698275e+01 9.9136202643427982e+00 2.2607812636254888e+01 -41 30 28
431 1 1.4778217382797218e+01 4.8052178998481105e+00 2.0295348143329150e+01 -56 -33 -18
57 1 2.8796807773074811e+00 3.1613755533150854e+00 1.9034339095707690e+01 -21 3 35
294 1 1.6584501440411806e+01 1.1264611443440533e+01 1.9105652050436007e+01 18 35 -83
204 1 9.4507287577968633e+00 2.2653813027245802e+00 1.8539180558064771e+01 11 -26 -190
498 1 3.5639004659265665e+00 1.0929971126326357e+01 1.8971734551725934e+01 45 20 -1
202 1 1.9140142819934450e+01 1.1546706540785630e+01 1.9955813946280678e+01 24 101 -14
65 1 1.6889307227657795e+00 7.3864768380331878e+00 1.9769361508327247e+01 -34 69 -16
118 1 8.4441673595524112e+00 9.8211421015790439e+00 2.4202858298505436e+01 -30 136 -94
80 1 2.0278672270304071e+01 7.1800663900045789e+00 2.1690443475064658e+01 30 41 17
321 1 1.6209459647845055e+00 1.3428616770235349e+00 1.7871612309165737e+01 38 22 -87
389 1 8.4307104412906853e-01 9.4546261419517368e+00 2.1771753803468414e+01 19 72 -14
508 1 5.0539303502323438e+00 4.1962407734537130e+00 1.7335898343320288e+01 -6 24 -61
478 1 1.3131620995796771e+01 9.3665074391762708e+00 1.9976524847623491e+01 25 -7 33
464 1 1.0971105878655427e+01 4.1052419673284088e+00 2.0604654878324503e+01 4 10 -20
350 1 7.4820501029707280e+00 4.6512137198243257e+00 1.8882283364727261e+01 15 -5 34
90 1 7.2794019740080689e+00 1.0055248546483474e+01 1.9236262291198937e+01 -38 -25 -86
412 1 1.0021960300545555e+01 5.7747510402148947e+00 1.7105243443893308e+01 -25 21 -53
288 1 4.2933476597153764e+00 5.5716888738913637e+00 2.2633551808964189e+01 -69 -21 -67
395 1 1.7030865256549987e+01 4.7958976593463909e+00 2.3239083338856613e+01 -38 45 -48
61 1 1.4562463133573824e+00 1.0348849236119626e+01 2.4413498664549721e+01 81 -58 89
271 1 2.2068733172076719e+01 1.2350313596005821e+01 2.3536898458592635e+01 39 23 -61
47 1 1.1662298045581460e+01 2.5014080981208586e-01 1.7571802567619638e+01 14 59 -99
25 1 1.2922574574319441e+01 1.2283424251539234e+01 1.8074085354237823e+01 49 -71 -70
56 1 1.4188633688764080e+01 7.3900152305214339e+00 2.1839401593248652e+01 -19 85 25
257 1 2.2362014147400842e+01 5.0935885707634920e+00 2.0420060739947225e+01 -24 18 52
307 1 9.8307851037896121e+00 7.5399486277027927e+00 2.3108455515933485e+01 -56 97 -8
91 1 5.9316372102899191e+00 9.6508974955275271e+00 2.3374906871326665e+01 -21 -1 20
171 1 1.2559211162008555e+01 5.0048871301433282e+00 1.8378129013550343e+01 -25 37 14
463 1 2.2388926906390036e+01 2.3410632608807074e+00 1.8929722710759854e+01 -47 29 -38
152 1 1.8945009704593165e+01 1.7077183658159409e+00 2.1894359278681041e+01 -52 -144 -7
277 1 2.2793018855656587e+01 8.3090299770814724e+00 2.1188800816051906e+01 46 12 102
376 1 2.4239869893304672e+01 4.7690080505213928e+00 2.4824485752885639e+01 -71 0 5
189 1 1.5673683024955141e+01 1.0027191216018126e+01 2.2838552013686666e+01 112 -38 -39
30 1 6.3744094240108886e+00 7.5421908236568163e+00 2.1225138476864213e+01 -85 1 -11
264 1 1.7613501079252611e+01 7.7140256146038073e+00 2.0421242219073196e+01 -116 27 43
213 1 4.4125523162398474e+00 1.5239642232815238e+00 2.0570478045398627e+01 -42 -11 14
154 1 1.9092804137753657e+01 4.0396971766626288e+00 1.8903099176293281e+01 101 -36 -2
428 1 1.0481071828693866e+01 1.2067927264389457e+01 2.3620422464794327e+01 66 -1 10
314 1 2.4021732499753160e+01 6.3341296407338987e+00 1.8502758465558930e+01 -12 17 7
417 1 1.5055979476280056e+01 1.0321662875749829e-02 1.7986507346760455e+01 13 4 -11
333 1 1.0836152478396233e+01 1.6262765170119287e+00 2.3746277101105218e+01 18 30 34
458 1 1.9986578570955583e+01 6.5920449407077699e+00 1.8604297049716831e+01 -36 43 9
429 1 6.9867850263444033e+00 1.4676069965565919e-01 1.7669836063402826e+01 -39 -30 41
252 1 1.4540643537880147e+01 1.1408261078138462e+01 2.0896948675214908e+01 -56 -71 9
419 1 2.0851499784467581e+01 1.0587716415181385e+01 1.7970168803965951e+01 47 14 14
27 1 1.4203017170967454e+00 1.1523065289404895e+01 2.0182467433643399e+01 14 -30 58
246 1 1.9658543499322725e+01 1.0587651320898230e+00 1.6848256153704199e+01 70 65 105
203 1 8.6486308943446240e+00 5.6272654239704094e+00 2.1228887961194800e+01 102 -119 81
339 1 1.9208807804364234e+01 8.7137752250685754e+00 1.7071562162174072e+01 34 37 -3
502 1 1.0292519939769099e+01 3.9720733170334936e+00 2.4852585677613817e+01 -31 -34 -38
309 1 1.6643416037196225e+01 5.3665061978164541e+00 1.8112459737230498e+01 68 68 -36
298 1 2.4576819547054942e+01 4.3613452011707112e+00 2.2024088166644852e+01 9 32 5
467 1 3.3727445777202636e+00 8.2233386900405829e+00 1.8093870426943411e+01 -54 104 54
341 1 4.3680968911567968e+00 3.2423476223049943e+00 2.4437413690100605e+01 39 -34 63
133 1 2.2994308182420916e+01 9.9716911485353315e+00 2.4837564956408404e+01 -36 69 -57
338 1 7.3425605285369961e+00 4.9653845288112795e+00 2.3916352757100235e+01 -2 4 31
54 1 9.3499513418765225e+00 7.6460658656132185e+00 1.8924903693404577e+01 -3 -4 60
474 1 2.4490444676551157e+01 3.6101848297907541e-01 1.9984952481618393e+01 -15 -64 -46
355 1 1.5513149024864239e+01 5.0937766049437905e-01 2.4457087795017610e+01 -16 -11 52
286 1 2.3405274515993366e+01 1.9164718098448665e+00 2.4842865833729899e+01 47 -16 15
379 1 6.3934018289512720e+00 1.0313135731245708e+00 2.4482176942869081e+01 133 -10 58
181 1 1.4044019747298810e+01 1.1584847128167995e+01 2.4575732045023067e+01 79 68 -42
304 1 1.5123017225373088e+01 2.2146712965299738e+01 4.6508288617315419e+00 -26 -56 125
448 1 1.6872803852454695e+01 2.0601331264736508e+01 3.5409581042779215e-01 -11 -43 -10
14 1 2.0636169690194095e+01 1.6629118980107375e+01 7.5040104754352805e+00 61 -20 33
18 1 1.3494095703105254e+01 2.2617296950404135e+01 6.7329127564413920e+00 66 54 47
173 1 5.1798976801040428e+00 2.0434501688349915e+01 5.7338775745827366e+00 32 47 4
245 1 1.0712070901953473e+01 2.2624192556636423e+01 7.6010627257345114e+00 -15 7 88
179 1 1.0679222649332146e+01 1.5090024664412454e+01 2.1162825275885284e+00 -78 -73 -37
272 1 5.2709023286347989e+00 1.8444340859950685e+01 1.5984347667468541e+00 -24 -8 107
345 1 4.7346129015967513e+00 1.4296422761446832e+01 6.1665626498737025e-01 92 126 -21
64 1 2.4147155601128912e+01 1.6633759166240804e+01 4.2258251984757731e+00 -41 70 18
195 1 1.9286509872954252e+01 2.0718985878605707e+01 4.9689114364081659e+00 -16 -6 85
461 1 9.9897839701412057e+00 1.4684491145905900e+01 4.6959792275001693e+00 9 27 -4
280 1 7.7235044527718664e+00 2.3620164581489824e+01 5.8807128478425712e+00 18 -47 156
446 1 2.1598366576441865e+01 1.9356466590082757e+01 6.8447289237401243e+00 33 41 -13
450 1 1.4682134193691475e+01 1.6492861113432156e+01 3.5167318037414006e+00 131 -79 26
76 1 1.0375766863871782e+01 1.7656791984135669e+01 6.4827113933117575e-01 14 29 2
443 1 2.0841184817971108e+01 1.4009618377012854e+01 6.2692821769380531e+00 -109 22 -14
16 1 1.9783990984742192e-01 1.8550521250518468e+01 8.2130694916302129e+00 131 94 8
416 1 2.2855879009703244e+01 2.2825647267765081e+01 7.4062039668197528e+00 -12 -35 24
128 1 2.2111974348844132e+01 1.8658075976984595e+01 3.7176434032725778e+00 20 1 -17
42 1 1.2136979574864952e+00 1.7173539470347844e+01 6.2023165994643392e+00 0 86 -74
146 1 1.5821377046382482e+01 2.4221791062743790e+01 3.3432235009506734e+00 -15 -12 4
327 1 2.7454439474739152e+00 1.5019744497166194e+01 2.7787848462388043e+00 79 -2 5
452 1 7.9580010682889988e+00 1.9540907861756192e+01 1.2345127885540161e+00 9 -1 88
75 1 1.5229217870852255e+01 2.3059982542648196e+01 7.9660915830323864e-01 18 31 2
500 1 1.6716154835688222e+01 1.4798249186633804e+01 4.5518520070023962e+00 74 -74 51
119 1 2.0405805830001068e+01 2.3019025447070256e+01 6.0569818456553799e+00 58 60 97
205 1 2.3791796355458175e+00 2.1850791796904641e+01 4.1431077134133991e+00 -38 -5 -70
400 1 1.9499867588015729e+01 2.0326762702903956e+01 9.7960760013753156e-01 58 15 -34
305 1 2.3763044154620470e+01 2.0613497611641993e+01 2.7316510296834440e+00 17 85 37
188 1 3.4329997197210069e+00 1.8604535136614363e+01 4.6976645386946974e+00 14 -1 66
127 1 8.7801961777947823e-01 1.6635978218128805e+01 1.8445509261217097e+00 54 71 82
373 1 1.1555804452050273e+01 1.9206093326140245e+01 2.9784331528741661e+00 57 42 -42
380 1 1.6772692604344385e+01 1.5822968790965827e+01 7.2617868698659471e-01 -10 88 57
507 1 1.7710524774873706e+00 1.9715032100114012e+01 2.6457024782600049e+00 -55 19 -27
110 1 1.6727522800200589e+01 1.5812997694242716e+01 7.6935734410611110e+00 26 -35 -30
104 1 4.8065327166865455e+00 2.2531775352976545e+01 9.0673730485257287e-01 80 18 -28
4 1 2.3575484215640582e+01 1.4088116809704987e+01 4.8790962486419369e+00 30 -83 16
409 1 1.6712847261458840e+01 1.9566300440696715e+01 4.9313487885576226e+00 -52 74 75
274 1 2.2069745945757532e+01 2.4490634090151413e+01 8.1792600636903323e-01 -44 35 -1
87 1 8.6075778341854043e+00 1.5730942291386597e+01 4.9082237270707152e-02 9 33 102
108 1 1.9165902532884182e+01 1.2995969609681332e+01 1.6983128547435504e+00 37 -39 29
138 1 7.5463209854525193e+00 1.5880868041602199e+01 7.2574564414186931e+00 183 41 21
82 1 1.6191898490379920e+01 1.2532374911385800e+01 5.8671424365130074e+00 -16 -2 6
470 1 1.4381487657024976e+00 2.4531032608751794e+01 1.3891037881313446e+00 29 -36 -135
22 1 4.1429065451484286e+00 2.3600636898113684e+01 3.1615622349018055e+00 -3 -82 71
43 1 8.8453796213722757e+00 1.8351612022627812e+01 6.4784492579641038e+00 -8 7 15
408 1 1.8646178060189836e+01 2.4801425063929671e+01 3.4835444853868647e+00 -143 23 50
476 1 6.8263698369924688e+00 2.2112829061985565e+01 3.9716192804499926e+00 -30 -7 -51
10 1 1.3427862666622703e+01 1.8189123632095296e+01 5.2472288796212325e+00 -80 55 -21
396 1 3.3387128369322312e+00 2.0344054265745356e+01 4.9538393189229890e-01 -12 3 22
276 1 5.1049943173506245e+00 1.6572301531715762e+01 3.9070078389740539e+00 24 179 -19
201 1 3.6361229811892914e+00 2.2280895588852974e+01 7.2516860527730209e+00 -93 -54 45
67 1 1.6745502716598846e+01 1.8403199368714496e+01 2.4120335609203951e+00 -22 -80 -30
235 1 1.3380614775568828e+01 1.3058217362762953e+01 6.5028286210528607e+00 18 -52 151
142 1 1.0360646142944159e+01 2.2664046400728040e+01 4.5963952167785216e+00 24 23 43
208 1 6.6794339397627924e+00 1.2955612706843979e+01 2.1577324971464269e+00 13 87 1
372 1 8.9707073973747438e+00 1.9948455364483799e+01 4.1396624644957871e+00 37 -10 16
299 1 1.9618661334832396e+01 1.7558771707692898e+01 2.0743048756194509e+00 48 19 71
62 1 2.3887098967516316e+01 2.3485799070284642e+01 2.8638056697853291e+00 79 -24 -59
182 1 1.9604841081712379e+01 1.4997961872863298e+01 3.6377784088081153e+00 105 43 49
236 1 1.3469686517094999e+01 1.4752351792612020e+01 2.2247897752208887e+00 37 76 64
36 1 6.8652473864143593e+00 1.4342210747210942e+01 5.0495691834697922e+00 102 68 122
481 1 8.8567448081287603e-01 2.2520895102230327e+01 6.3887112044738359e+00 33 -13 -27
449 1 1.8729401232510685e+00 1.4736244588241364e+01 7.2810603269737539e+00 -57 60 18
368 1 1.1173658090027086e+01 1.7088273962206717e+01 6.1179328903893655e+00 43 -37 56
196 1 1.9716503229821186e+01 2.2129170720475241e+01 2.8478147641303306e+00 8 29 7
88 1 2.4022911823200207e+01 2.0489032845126253e+01 5.8385701713549754e+00 -35 20 59
337 1 2.2801235054282326e+01 1.7286782636667489e+01 7.1973533992236960e-01 31 6 -42
348 1 3.6663322651217842e+00 1.4211651459624834e+01 5.4354469408402784e+00 -6 -19 27
192 1 1.6245459202973080e+01 1.2938743880082098e+01 1.6685052294111506e+00 -99 71 -62
320 1 1.7231527223541761e+01 1.8718496915123055e+01 7.4208630018674659e+00 17 83 25
112 1 2.2115620743848641e+01 2.1280494293920608e+01 3.4385544361459996e-01 17 82 -44
504 1 1.2681489633075358e+01 2.1714243859972168e+01 3.1603352911987521e+00 -22 -31 50
427 1 7.6588735204025644e+00 2.2456872196099809e+01 4.3932813888114841e-01 119 -14 24
360 1 1.4502790358747095e+01 1.9975346925195726e+01 7.4083943125254113e+00 -98 -28 69
51 1 2.3919944278432219e+01 1.4170785080263762e+01 7.8255024256270653e+00 49 -5 -31
331 1 8.6641445195053368e+00 2.4177655427063424e+01 2.3369262399047765e+00 23 22 -8
70 1 9.5515779608704552e+00 1.2625084935382288e+01 1.3422347451499193e+00 93 -4 4
387 1 1.8061773790378254e+01 2.4074525043451217e+01 7.0342945205431997e+00 76 -29 138
267 1 5.0495362514260647e+00 2.4468678073299415e+01 7.0044950674974640e+00 -95 62 -50
485 1 1.9418287327566169e+01 2.0661822469667687e+01 8.1753215556357102e+00 -7 -7 75
244 1 1.2448391554576252e+01 2.2748871428143786e+01 8.0893035363071852e-01 -39 48 16
295 1 2.0726096496111225e+01 2.2421306071103164e+01 1.5697491696745727e+01 -36 -20 2
296 1 1.9793066694550092e+01 1.7734877009545713e+01 1.1720137456041661e+01 -44 -98 58
168 1 8.1691525406550358e+00 2.4389625990399594e+01 1.0295794801378047e+01 87 -51 -51
106 1 1.5837998536155595e+01 1.2664140397684930e+01 8.7536237820284430e+00 30 -16 3
275 1 4.6033850911400682e+00 2.1801566122628241e+01 1.2167928429690191e+01 20 -12 14
199 1 4.4712923033570178e+00 2.4801788776021670e+01 1.1524672016806344e+01 11 73 -33
484 1 1.1214881047713556e+01 1.6911201533043545e+01 1.4116281694021051e+01 -42 -17 94
353 1 1.1028905338580930e+01 2.3020650275921113e+01 1.3287422733489594e+01 -161 72 93
137 1 1.1338578349164319e+00 1.9237250810539788e+01 1.3609697308238749e+01 -10 -31 53