LAMMPS (4 Jan 2019)
Reading data file ...
  orthogonal box = (0.147063 0.147063 0.147063) to (24.6879 24.6879 24.6879)
  1 by 2 by 3 MPI processor grid
  reading atoms ...
  512 atoms
  reading velocities ...
  512 velocities
Neighbor list info ...
  update every 1 steps, delay 0 steps, check yes
  max neighbors/atom: 2000, page size: 100000
  master list distance cutoff = 6.3065
  ghost atom cutoff = 6.3065
  1 neighbor lists, perpetual/occasional/extra = 1 0 0
  (1) pair sw, perpetual
      attributes: full, newton on
      pair build: full/nsq
      stencil: none
      bin: none
Setting up Verlet run ...
  Unit style    : real
  Current step  : 0
  Time step     : 5
Per MPI rank memory allocation (min/avg/max) = 2.697 | 2.697 | 2.697 Mbytes
---------------- Step        0 ----- CPU =      0.0000 (sec) ----------------
Time     = 0.000000 Temp     = 255.658457 Press    = 2426.941952 
PotEng   = -10.357202 KinEng   = 0.760581 Lx       = 24.540873 
Ly       = 24.540873 Lz       = 24.540873 Density  = 1.036312 
Volume   = 14779.850473 
---------------- Step    10000 ----- CPU =      6.3314 (sec) ----------------
Time     = 50000.000000 Temp     = 246.927429 Press    = 1001.991346 
PotEng   = -10.408651 KinEng   = 0.734606 Lx       = 24.729649 
Ly       = 24.729649 Lz       = 24.729649 Density  = 1.012760 
Volume   = 15123.553163 
---------------- Step    20000 ----- CPU =     12.6445 (sec) ----------------
Time     = 100000.000000 Temp     = 266.923998 Press    = 860.305922 
PotEng   = -10.341212 KinEng   = 0.794096 Lx       = 24.755028 
Ly       = 24.755028 Lz       = 24.755028 Density  = 1.009649 
Volume   = 15170.163947 
---------------- Step    30000 ----- CPU =     19.0037 (sec) ----------------
Time     = 150000.000000 Temp     = 269.551051 Press    = -802.310368 
PotEng   = -10.295649 KinEng   = 0.801911 Lx       = 24.858022 
Ly       = 24.858022 Lz       = 24.858022 Density  = 0.997151 
Volume   = 15360.299914 
---------------- Step    40000 ----- CPU =     25.3466 (sec) ----------------
Time     = 200000.000000 Temp     = 249.814111 Press    = 5.150399 
PotEng   = -10.317138 KinEng   = 0.743194 Lx       = 24.840833 
Ly       = 24.840833 Lz       = 24.840833 Density  = 0.999222 
Volume   = 15328.457930 
---------------- Step    50000 ----- CPU =     31.7132 (sec) ----------------
Time     = 250000.000000 Temp     = 253.226307 Press    = 48.876359 
PotEng   = -10.315323 KinEng   = 0.753345 Lx       = 24.765491 
Ly       = 24.765491 Lz       = 24.765491 Density  = 1.008369 
Volume   = 15189.407279 
---------------- Step    60000 ----- CPU =     38.0778 (sec) ----------------
Time     = 300000.000000 Temp     = 252.776758 Press    = -163.240326 
PotEng   = -10.388932 KinEng   = 0.752008 Lx       = 24.798947 
Ly       = 24.798947 Lz       = 24.798947 Density  = 1.004294 
Volume   = 15251.049230 
---------------- Step    70000 ----- CPU =     44.4308 (sec) ----------------
Time     = 350000.000000 Temp     = 248.056889 Press    = 956.554443 
PotEng   = -10.344566 KinEng   = 0.737966 Lx       = 24.709677 
Ly       = 24.709677 Lz       = 24.709677 Density  = 1.015218 
Volume   = 15086.942148 
---------------- Step    80000 ----- CPU =     50.7912 (sec) ----------------
Time     = 400000.000000 Temp     = 252.399904 Press    = -750.627970 
PotEng   = -10.359423 KinEng   = 0.750887 Lx       = 24.831405 
Ly       = 24.831405 Lz       = 24.831405 Density  = 1.000361 
Volume   = 15311.010663 
---------------- Step    90000 ----- CPU =     57.1684 (sec) ----------------
Time     = 450000.000000 Temp     = 233.252329 Press    = -24.269104 
PotEng   = -10.369262 KinEng   = 0.693923 Lx       = 24.794063 
Ly       = 24.794063 Lz       = 24.794063 Density  = 1.004887 
Volume   = 15242.040987 
---------------- Step   100000 ----- CPU =     63.5497 (sec) ----------------
Time     = 500000.000000 Temp     = 248.742268 Press    = 67.334479 
PotEng   = -10.326613 KinEng   = 0.740005 Lx       = 24.786996 
Ly       = 24.786996 Lz       = 24.786996 Density  = 1.005747 
Volume   = 15229.010697 
---------------- Step   110000 ----- CPU =     69.9472 (sec) ----------------
Time     = 550000.000000 Temp     = 248.532377 Press    = -613.065528 
PotEng   = -10.346947 KinEng   = 0.739381 Lx       = 24.811844 
Ly       = 24.811844 Lz       = 24.811844 Density  = 1.002729 
Volume   = 15274.855150 
---------------- Step   120000 ----- CPU =     76.2595 (sec) ----------------
Time     = 600000.000000 Temp     = 263.585088 Press    = -345.950021 
PotEng   = -10.323676 KinEng   = 0.784163 Lx       = 24.806076 
Ly       = 24.806076 Lz       = 24.806076 Density  = 1.003428 
Volume   = 15264.204921 
---------------- Step   130000 ----- CPU =     82.6841 (sec) ----------------
Time     = 650000.000000 Temp     = 247.828946 Press    = 50.537044 
PotEng   = -10.344245 KinEng   = 0.737288 Lx       = 24.767242 
Ly       = 24.767242 Lz       = 24.767242 Density  = 1.008156 
Volume   = 15192.629139 
---------------- Step   140000 ----- CPU =     89.0496 (sec) ----------------
Time     = 700000.000000 Temp     = 270.817179 Press    = 501.320314 
PotEng   = -10.366723 KinEng   = 0.805678 Lx       = 24.753208 
Ly       = 24.753208 Lz       = 24.753208 Density  = 1.009871 
Volume   = 15166.818403 
---------------- Step   150000 ----- CPU =     95.4710 (sec) ----------------
Time     = 750000.000000 Temp     = 244.461431 Press    = 535.217676 
PotEng   = -10.309690 KinEng   = 0.727270 Lx       = 24.714013 
Ly       = 24.714013 Lz       = 24.714013 Density  = 1.014684 
Volume   = 15094.885897 
---------------- Step   160000 ----- CPU =    101.8118 (sec) ----------------
Time     = 800000.000000 Temp     = 252.875998 Press    = -1060.957358 
PotEng   = -10.368897 KinEng   = 0.752303 Lx       = 24.873978 
Ly       = 24.873978 Lz       = 24.873978 Density  = 0.995233 
Volume   = 15389.896936 
---------------- Step   170000 ----- CPU =    108.1517 (sec) ----------------
Time     = 850000.000000 Temp     = 242.055569 Press    = -62.132141 
PotEng   = -10.321026 KinEng   = 0.720112 Lx       = 24.786334 
Ly       = 24.786334 Lz       = 24.786334 Density  = 1.005828 
Volume   = 15227.790427 
---------------- Step   180000 ----- CPU =    114.4852 (sec) ----------------
Time     = 900000.000000 Temp     = 240.743670 Press    = -796.832577 
PotEng   = -10.340412 KinEng   = 0.716210 Lx       = 24.912937 
Ly       = 24.912937 Lz       = 24.912937 Density  = 0.990571 
Volume   = 15462.324996 
---------------- Step   190000 ----- CPU =    120.8456 (sec) ----------------
Time     = 950000.000000 Temp     = 264.684768 Press    = -274.057046 
PotEng   = -10.389225 KinEng   = 0.787434 Lx       = 24.819006 
Ly       = 24.819006 Lz       = 24.819006 Density  = 1.001861 
Volume   = 15288.088132 
---------------- Step   200000 ----- CPU =    127.1337 (sec) ----------------
Time     = 1000000.000000 Temp     = 253.333778 Press    = 640.628038 
PotEng   = -10.358465 KinEng   = 0.753665 Lx       = 24.776565 
Ly       = 24.776565 Lz       = 24.776565 Density  = 1.007018 
Volume   = 15209.791628 
---------------- Step   210000 ----- CPU =    133.5315 (sec) ----------------
Time     = 1050000.000000 Temp     = 239.564052 Press    = 443.517073 
PotEng   = -10.385618 KinEng   = 0.712700 Lx       = 24.708549 
Ly       = 24.708549 Lz       = 24.708549 Density  = 1.015357 
Volume   = 15084.875190 
---------------- Step   220000 ----- CPU =    139.9045 (sec) ----------------
Time     = 1100000.000000 Temp     = 241.800764 Press    = -462.704349 
PotEng   = -10.397891 KinEng   = 0.719354 Lx       = 24.820602 
Ly       = 24.820602 Lz       = 24.820602 Density  = 1.001667 
Volume   = 15291.037401 
---------------- Step   230000 ----- CPU =    146.2187 (sec) ----------------
Time     = 1150000.000000 Temp     = 245.880819 Press    = -25.936165 
PotEng   = -10.269202 KinEng   = 0.731493 Lx       = 24.834051 
Ly       = 24.834051 Lz       = 24.834051 Density  = 1.000041 
Volume   = 15315.906459 
---------------- Step   240000 ----- CPU =    152.5186 (sec) ----------------
Time     = 1200000.000000 Temp     = 244.007909 Press    = -1280.700680 
PotEng   = -10.368492 KinEng   = 0.725921 Lx       = 24.849486 
Ly       = 24.849486 Lz       = 24.849486 Density  = 0.998179 
Volume   = 15344.482562 
---------------- Step   250000 ----- CPU =    158.8011 (sec) ----------------
Time     = 1250000.000000 Temp     = 251.329818 Press    = -483.063206 
PotEng   = -10.359583 KinEng   = 0.747703 Lx       = 24.889237 
Ly       = 24.889237 Lz       = 24.889237 Density  = 0.993404 
Volume   = 15418.238852 
---------------- Step   260000 ----- CPU =    165.1470 (sec) ----------------
Time     = 1300000.000000 Temp     = 245.119045 Press    = 575.271079 
PotEng   = -10.312233 KinEng   = 0.729226 Lx       = 24.880099 
Ly       = 24.880099 Lz       = 24.880099 Density  = 0.994499 
Volume   = 15401.262197 
---------------- Step   270000 ----- CPU =    171.4251 (sec) ----------------
Time     = 1350000.000000 Temp     = 251.619359 Press    = 201.053553 
PotEng   = -10.375695 KinEng   = 0.748565 Lx       = 24.850552 
Ly       = 24.850552 Lz       = 24.850552 Density  = 0.998050 
Volume   = 15346.457475 
---------------- Step   280000 ----- CPU =    177.7439 (sec) ----------------
Time     = 1400000.000000 Temp     = 241.405611 Press    = 197.718006 
PotEng   = -10.368323 KinEng   = 0.718179 Lx       = 24.842840 
Ly       = 24.842840 Lz       = 24.842840 Density  = 0.998980 
Volume   = 15332.174120 
---------------- Step   290000 ----- CPU =    184.0899 (sec) ----------------
Time     = 1450000.000000 Temp     = 267.946864 Press    = 833.255952 
PotEng   = -10.344669 KinEng   = 0.797139 Lx       = 24.740919 
Ly       = 24.740919 Lz       = 24.740919 Density  = 1.011377 
Volume   = 15144.240787 
---------------- Step   300000 ----- CPU =    190.4431 (sec) ----------------
Time     = 1500000.000000 Temp     = 237.724256 Press    = -254.318948 
PotEng   = -10.363492 KinEng   = 0.707227 Lx       = 24.814863 
Ly       = 24.814863 Lz       = 24.814863 Density  = 1.002363 
Volume   = 15280.432381 
---------------- Step   310000 ----- CPU =    196.7635 (sec) ----------------
Time     = 1550000.000000 Temp     = 258.458555 Press    = 59.628071 
PotEng   = -10.271210 KinEng   = 0.768911 Lx       = 24.789741 
Ly       = 24.789741 Lz       = 24.789741 Density  = 1.005413 
Volume   = 15234.071471 
---------------- Step   320000 ----- CPU =    203.1169 (sec) ----------------
Time     = 1600000.000000 Temp     = 257.955676 Press    = -350.893660 
PotEng   = -10.321837 KinEng   = 0.767415 Lx       = 24.839702 
Ly       = 24.839702 Lz       = 24.839702 Density  = 0.999359 
Volume   = 15326.364854 
---------------- Step   330000 ----- CPU =    209.4260 (sec) ----------------
Time     = 1650000.000000 Temp     = 262.659317 Press    = -1500.966000 
PotEng   = -10.299118 KinEng   = 0.781408 Lx       = 24.840199 
Ly       = 24.840199 Lz       = 24.840199 Density  = 0.999299 
Volume   = 15327.284647 
---------------- Step   340000 ----- CPU =    215.7793 (sec) ----------------
Time     = 1700000.000000 Temp     = 248.360195 Press    = 862.601555 
PotEng   = -10.361751 KinEng   = 0.738869 Lx       = 24.742611 
Ly       = 24.742611 Lz       = 24.742611 Density  = 1.011169 
Volume   = 15147.346430 
---------------- Step   350000 ----- CPU =    222.1716 (sec) ----------------
Time     = 1750000.000000 Temp     = 246.275505 Press    = -4.241107 
PotEng   = -10.297185 KinEng   = 0.732667 Lx       = 24.771892 
Ly       = 24.771892 Lz       = 24.771892 Density  = 1.007588 
Volume   = 15201.188919 
---------------- Step   360000 ----- CPU =    228.5039 (sec) ----------------
Time     = 1800000.000000 Temp     = 260.861369 Press    = 346.868399 
PotEng   = -10.322505 KinEng   = 0.776059 Lx       = 24.754573 
Ly       = 24.754573 Lz       = 24.754573 Density  = 1.009704 
Volume   = 15169.327168 
---------------- Step   370000 ----- CPU =    234.8569 (sec) ----------------
Time     = 1850000.000000 Temp     = 258.289683 Press    = 832.084671 
PotEng   = -10.348798 KinEng   = 0.768409 Lx       = 24.743698 
Ly       = 24.743698 Lz       = 24.743698 Density  = 1.011036 
Volume   = 15149.344389 
---------------- Step   380000 ----- CPU =    241.1856 (sec) ----------------
Time     = 1900000.000000 Temp     = 256.947116 Press    = -239.540681 
PotEng   = -10.408432 KinEng   = 0.764415 Lx       = 24.791253 
Ly       = 24.791253 Lz       = 24.791253 Density  = 1.005229 
Volume   = 15236.859328 
---------------- Step   390000 ----- CPU =    247.4841 (sec) ----------------
Time     = 1950000.000000 Temp     = 242.003880 Press    = 165.057505 
PotEng   = -10.328796 KinEng   = 0.719959 Lx       = 24.881906 
Ly       = 24.881906 Lz       = 24.881906 Density  = 0.994282 
Volume   = 15404.617894 
---------------- Step   400000 ----- CPU =    253.8226 (sec) ----------------
Time     = 2000000.000000 Temp     = 247.140383 Press    = 235.847778 
PotEng   = -10.385097 KinEng   = 0.735240 Lx       = 24.786852 
Ly       = 24.786852 Lz       = 24.786852 Density  = 1.005765 
Volume   = 15228.744523 
---------------- Step   410000 ----- CPU =    260.0797 (sec) ----------------
Time     = 2050000.000000 Temp     = 232.502598 Press    = -514.723532 
PotEng   = -10.353620 KinEng   = 0.691692 Lx       = 24.858665 
Ly       = 24.858665 Lz       = 24.858665 Density  = 0.997073 
Volume   = 15361.491320 
---------------- Step   420000 ----- CPU =    266.4187 (sec) ----------------
Time     = 2100000.000000 Temp     = 254.780580 Press    = -1063.841521 
PotEng   = -10.364390 KinEng   = 0.757969 Lx       = 24.823560 
Ly       = 24.823560 Lz       = 24.823560 Density  = 1.001309 
Volume   = 15296.504871 
---------------- Step   430000 ----- CPU =    272.7899 (sec) ----------------
Time     = 2150000.000000 Temp     = 237.787556 Press    = -227.297477 
PotEng   = -10.275399 KinEng   = 0.707415 Lx       = 24.846122 
Ly       = 24.846122 Lz       = 24.846122 Density  = 0.998584 
Volume   = 15338.251048 
---------------- Step   440000 ----- CPU =    279.0770 (sec) ----------------
Time     = 2200000.000000 Temp     = 256.532675 Press    = -67.022192 
PotEng   = -10.349516 KinEng   = 0.763182 Lx       = 24.825206 
Ly       = 24.825206 Lz       = 24.825206 Density  = 1.001110 
Volume   = 15299.546896 
---------------- Step   450000 ----- CPU =    285.4304 (sec) ----------------
Time     = 2250000.000000 Temp     = 243.897427 Press    = 358.799483 
PotEng   = -10.398561 KinEng   = 0.725592 Lx       = 24.710919 
Ly       = 24.710919 Lz       = 24.710919 Density  = 1.015065 
Volume   = 15089.216587 
---------------- Step   460000 ----- CPU =    291.7647 (sec) ----------------
Time     = 2300000.000000 Temp     = 250.153698 Press    = 430.967187 
PotEng   = -10.359804 KinEng   = 0.744204 Lx       = 24.742535 
Ly       = 24.742535 Lz       = 24.742535 Density  = 1.011179 
Volume   = 15147.206949 
---------------- Step   470000 ----- CPU =    298.1628 (sec) ----------------
Time     = 2350000.000000 Temp     = 248.394787 Press    = 172.586149 
PotEng   = -10.360937 KinEng   = 0.738972 Lx       = 24.847391 
Ly       = 24.847391 Lz       = 24.847391 Density  = 0.998431 
Volume   = 15340.601638 
---------------- Step   480000 ----- CPU =    304.4928 (sec) ----------------
Time     = 2400000.000000 Temp     = 248.754876 Press    = -479.356240 
PotEng   = -10.343247 KinEng   = 0.740043 Lx       = 24.816737 
Ly       = 24.816737 Lz       = 24.816737 Density  = 1.002136 
Volume   = 15283.895203 
---------------- Step   490000 ----- CPU =    310.7564 (sec) ----------------
Time     = 2450000.000000 Temp     = 226.352645 Press    = -119.414530 
PotEng   = -10.349691 KinEng   = 0.673396 Lx       = 24.744287 
Ly       = 24.744287 Lz       = 24.744287 Density  = 1.010964 
Volume   = 15150.425681 
---------------- Step   500000 ----- CPU =    317.0760 (sec) ----------------
Time     = 2500000.000000 Temp     = 261.667334 Press    = -498.752438 
PotEng   = -10.259640 KinEng   = 0.778457 Lx       = 24.859158 
Ly       = 24.859158 Lz       = 24.859158 Density  = 0.997014 
Volume   = 15362.405780 
---------------- Step   510000 ----- CPU =    323.3886 (sec) ----------------
Time     = 2550000.000000 Temp     = 249.853935 Press    = -67.927176 
PotEng   = -10.364844 KinEng   = 0.743312 Lx       = 24.817741 
Ly       = 24.817741 Lz       = 24.817741 Density  = 1.002014 
Volume   = 15285.749783 
---------------- Step   520000 ----- CPU =    329.7253 (sec) ----------------
Time     = 2600000.000000 Temp     = 253.624141 Press    = 83.031136 
PotEng   = -10.411652 KinEng   = 0.754529 Lx       = 24.735207 
Ly       = 24.735207 Lz       = 24.735207 Density  = 1.012078 
Volume   = 15133.753612 
---------------- Step   530000 ----- CPU =    336.0614 (sec) ----------------
Time     = 2650000.000000 Temp     = 250.954751 Press    = 12.058391 
PotEng   = -10.321596 KinEng   = 0.746587 Lx       = 24.730304 
Ly       = 24.730304 Lz       = 24.730304 Density  = 1.012680 
Volume   = 15124.755668 
---------------- Step   540000 ----- CPU =    342.4413 (sec) ----------------
Time     = 2700000.000000 Temp     = 245.610226 Press    = 226.861472 
PotEng   = -10.346286 KinEng   = 0.730688 Lx       = 24.760629 
Ly       = 24.760629 Lz       = 24.760629 Density  = 1.008964 
Volume   = 15180.462751 
---------------- Step   550000 ----- CPU =    348.8454 (sec) ----------------
Time     = 2750000.000000 Temp     = 255.696009 Press    = 1096.542230 
PotEng   = -10.342804 KinEng   = 0.760693 Lx       = 24.685608 
Ly       = 24.685608 Lz       = 24.685608 Density  = 1.018190 
Volume   = 15042.897188 
---------------- Step   560000 ----- CPU =    355.2257 (sec) ----------------
Time     = 2800000.000000 Temp     = 243.845862 Press    = -73.958126 
PotEng   = -10.352614 KinEng   = 0.725439 Lx       = 24.738301 
Ly       = 24.738301 Lz       = 24.738301 Density  = 1.011698 
Volume   = 15139.432447 
---------------- Step   570000 ----- CPU =    361.6012 (sec) ----------------
Time     = 2850000.000000 Temp     = 243.012104 Press    = 846.528344 
PotEng   = -10.329681 KinEng   = 0.722958 Lx       = 24.725301 
Ly       = 24.725301 Lz       = 24.725301 Density  = 1.013295 
Volume   = 15115.577699 
---------------- Step   580000 ----- CPU =    367.9863 (sec) ----------------
Time     = 2900000.000000 Temp     = 260.398652 Press    = -440.002073 
PotEng   = -10.303671 KinEng   = 0.774683 Lx       = 24.934748 
Ly       = 24.934748 Lz       = 24.934748 Density  = 0.987974 
Volume   = 15502.971073 
---------------- Step   590000 ----- CPU =    374.2997 (sec) ----------------
Time     = 2950000.000000 Temp     = 238.218647 Press    = 35.287658 
PotEng   = -10.384683 KinEng   = 0.708698 Lx       = 24.817921 
Ly       = 24.817921 Lz       = 24.817921 Density  = 1.001992 
Volume   = 15286.082110 
---------------- Step   600000 ----- CPU =    380.6444 (sec) ----------------
Time     = 3000000.000000 Temp     = 256.879387 Press    = -611.204974 
PotEng   = -10.389767 KinEng   = 0.764213 Lx       = 24.814738 
Ly       = 24.814738 Lz       = 24.814738 Density  = 1.002378 
Volume   = 15280.201228 
---------------- Step   610000 ----- CPU =    386.9458 (sec) ----------------
Time     = 3050000.000000 Temp     = 254.964752 Press    = -167.636081 
PotEng   = -10.379425 KinEng   = 0.758517 Lx       = 24.796197 
Ly       = 24.796197 Lz       = 24.796197 Density  = 1.004628 
Volume   = 15245.976717 
---------------- Step   620000 ----- CPU =    393.3143 (sec) ----------------
Time     = 3100000.000000 Temp     = 240.607376 Press    = -1068.020958 
PotEng   = -10.376355 KinEng   = 0.715804 Lx       = 24.922781 
Ly       = 24.922781 Lz       = 24.922781 Density  = 0.989398 
Volume   = 15480.661996 
---------------- Step   630000 ----- CPU =    399.6314 (sec) ----------------
Time     = 3150000.000000 Temp     = 241.572857 Press    = -663.468454 
PotEng   = -10.333002 KinEng   = 0.718676 Lx       = 24.815164 
Ly       = 24.815164 Lz       = 24.815164 Density  = 1.002326 
Volume   = 15280.989016 
---------------- Step   640000 ----- CPU =    405.9796 (sec) ----------------
Time     = 3200000.000000 Temp     = 266.150040 Press    = -799.299706 
PotEng   = -10.310405 KinEng   = 0.791793 Lx       = 24.903846 
Ly       = 24.903846 Lz       = 24.903846 Density  = 0.991657 
Volume   = 15445.403181 
---------------- Step   650000 ----- CPU =    412.3086 (sec) ----------------
Time     = 3250000.000000 Temp     = 244.250498 Press    = 734.687055 
PotEng   = -10.377745 KinEng   = 0.726642 Lx       = 24.790734 
Ly       = 24.790734 Lz       = 24.790734 Density  = 1.005292 
Volume   = 15235.901567 
---------------- Step   660000 ----- CPU =    418.6845 (sec) ----------------
Time     = 3300000.000000 Temp     = 235.064473 Press    = 37.269033 
PotEng   = -10.297764 KinEng   = 0.699314 Lx       = 24.779356 
Ly       = 24.779356 Lz       = 24.779356 Density  = 1.006678 
Volume   = 15214.933833 
---------------- Step   670000 ----- CPU =    425.1120 (sec) ----------------
Time     = 3350000.000000 Temp     = 260.941464 Press    = 340.181001 
PotEng   = -10.379510 KinEng   = 0.776298 Lx       = 24.848015 
Ly       = 24.848015 Lz       = 24.848015 Density  = 0.998356 
Volume   = 15341.756715 
---------------- Step   680000 ----- CPU =    431.4528 (sec) ----------------
Time     = 3400000.000000 Temp     = 263.017049 Press    = -314.124741 
PotEng   = -10.341088 KinEng   = 0.782473 Lx       = 24.864466 
Ly       = 24.864466 Lz       = 24.864466 Density  = 0.996376 
Volume   = 15372.248450 
---------------- Step   690000 ----- CPU =    437.7885 (sec) ----------------
Time     = 3450000.000000 Temp     = 248.214198 Press    = 435.113632 
PotEng   = -10.341432 KinEng   = 0.738434 Lx       = 24.828663 
Ly       = 24.828663 Lz       = 24.828663 Density  = 1.000692 
Volume   = 15305.939204 
---------------- Step   700000 ----- CPU =    444.0805 (sec) ----------------
Time     = 3500000.000000 Temp     = 257.172219 Press    = -1184.877028 
PotEng   = -10.322950 KinEng   = 0.765084 Lx       = 24.936410 
Ly       = 24.936410 Lz       = 24.936410 Density  = 0.987777 
Volume   = 15506.071072 
---------------- Step   710000 ----- CPU =    450.3774 (sec) ----------------
Time     = 3550000.000000 Temp     = 262.952766 Press    = 288.673489 
PotEng   = -10.359620 KinEng   = 0.782281 Lx       = 24.764351 
Ly       = 24.764351 Lz       = 24.764351 Density  = 1.008509 
Volume   = 15187.310573 
---------------- Step   720000 ----- CPU =    456.7182 (sec) ----------------
Time     = 3600000.000000 Temp     = 249.429583 Press    = -180.222053 
PotEng   = -10.304582 KinEng   = 0.742050 Lx       = 24.765783 
Ly       = 24.765783 Lz       = 24.765783 Density  = 1.008334 
Volume   = 15189.945426 
---------------- Step   730000 ----- CPU =    463.0596 (sec) ----------------
Time     = 3650000.000000 Temp     = 253.542387 Press    = 173.242611 
PotEng   = -10.395237 KinEng   = 0.754286 Lx       = 24.837975 
Ly       = 24.837975 Lz       = 24.837975 Density  = 0.999567 
Volume   = 15323.167203 
---------------- Step   740000 ----- CPU =    469.3984 (sec) ----------------
Time     = 3700000.000000 Temp     = 235.270569 Press    = -641.651734 
PotEng   = -10.356506 KinEng   = 0.699927 Lx       = 24.787426 
Ly       = 24.787426 Lz       = 24.787426 Density  = 1.005695 
Volume   = 15229.803698 
---------------- Step   750000 ----- CPU =    475.7150 (sec) ----------------
Time     = 3750000.000000 Temp     = 249.730036 Press    = 296.234484 
PotEng   = -10.396164 KinEng   = 0.742944 Lx       = 24.795774 
Ly       = 24.795774 Lz       = 24.795774 Density  = 1.004679 
Volume   = 15245.195270 
---------------- Step   760000 ----- CPU =    482.0079 (sec) ----------------
Time     = 3800000.000000 Temp     = 237.484215 Press    = -233.408031 
PotEng   = -10.286575 KinEng   = 0.706513 Lx       = 24.847985 
Ly       = 24.847985 Lz       = 24.847985 Density  = 0.998360 
Volume   = 15341.700740 
---------------- Step   770000 ----- CPU =    488.3569 (sec) ----------------
Time     = 3850000.000000 Temp     = 256.816167 Press    = 412.293964 
PotEng   = -10.348133 KinEng   = 0.764025 Lx       = 24.785485 
Ly       = 24.785485 Lz       = 24.785485 Density  = 1.005931 
Volume   = 15226.225355 
---------------- Step   780000 ----- CPU =    494.7098 (sec) ----------------
Time     = 3900000.000000 Temp     = 257.577260 Press    = -706.593831 
PotEng   = -10.370978 KinEng   = 0.766289 Lx       = 24.916427 
Ly       = 24.916427 Lz       = 24.916427 Density  = 0.990155 
Volume   = 15468.824346 
---------------- Step   790000 ----- CPU =    501.0329 (sec) ----------------
Time     = 3950000.000000 Temp     = 251.447469 Press    = -399.917958 
PotEng   = -10.378349 KinEng   = 0.748053 Lx       = 24.806814 
Ly       = 24.806814 Lz       = 24.806814 Density  = 1.003339 
Volume   = 15265.568554 
---------------- Step   800000 ----- CPU =    507.3793 (sec) ----------------
Time     = 4000000.000000 Temp     = 256.976445 Press    = 152.361205 
PotEng   = -10.356751 KinEng   = 0.764502 Lx       = 24.704653 
Ly       = 24.704653 Lz       = 24.704653 Density  = 1.015837 
Volume   = 15077.741195 
---------------- Step   810000 ----- CPU =    513.7210 (sec) ----------------
Time     = 4050000.000000 Temp     = 254.865306 Press    = -150.124103 
PotEng   = -10.376264 KinEng   = 0.758221 Lx       = 24.802126 
Ly       = 24.802126 Lz       = 24.802126 Density  = 1.003908 
Volume   = 15256.914236 
---------------- Step   820000 ----- CPU =    520.0170 (sec) ----------------
Time     = 4100000.000000 Temp     = 238.798628 Press    = -138.393303 
PotEng   = -10.336279 KinEng   = 0.710423 Lx       = 24.821732 
Ly       = 24.821732 Lz       = 24.821732 Density  = 1.001531 
Volume   = 15293.125385 
---------------- Step   830000 ----- CPU =    526.4008 (sec) ----------------
Time     = 4150000.000000 Temp     = 260.309400 Press    = 888.603492 
PotEng   = -10.352651 KinEng   = 0.774417 Lx       = 24.659128 
Ly       = 24.659128 Lz       = 24.659128 Density  = 1.021474 
Volume   = 14994.539795 
---------------- Step   840000 ----- CPU =    532.7898 (sec) ----------------
Time     = 4200000.000000 Temp     = 238.022734 Press    = -288.141215 
PotEng   = -10.284166 KinEng   = 0.708115 Lx       = 24.824740 
Ly       = 24.824740 Lz       = 24.824740 Density  = 1.001167 
Volume   = 15298.686274 
---------------- Step   850000 ----- CPU =    539.1533 (sec) ----------------
Time     = 4250000.000000 Temp     = 245.979399 Press    = -57.383967 
PotEng   = -10.304414 KinEng   = 0.731786 Lx       = 24.772116 
Ly       = 24.772116 Lz       = 24.772116 Density  = 1.007561 
Volume   = 15201.600353 
---------------- Step   860000 ----- CPU =    545.5272 (sec) ----------------
Time     = 4300000.000000 Temp     = 256.083205 Press    = -718.041558 
PotEng   = -10.380416 KinEng   = 0.761845 Lx       = 24.835414 
Ly       = 24.835414 Lz       = 24.835414 Density  = 0.999876 
Volume   = 15318.428544 
---------------- Step   870000 ----- CPU =    551.8929 (sec) ----------------
Time     = 4350000.000000 Temp     = 250.127198 Press    = -107.064425 
PotEng   = -10.332154 KinEng   = 0.744125 Lx       = 24.688891 
Ly       = 24.688891 Lz       = 24.688891 Density  = 1.017784 
Volume   = 15048.899450 
---------------- Step   880000 ----- CPU =    558.2659 (sec) ----------------
Time     = 4400000.000000 Temp     = 252.049342 Press    = -61.471441 
PotEng   = -10.289904 KinEng   = 0.749844 Lx       = 24.753153 
Ly       = 24.753153 Lz       = 24.753153 Density  = 1.009878 
Volume   = 15166.716761 
---------------- Step   890000 ----- CPU =    564.6028 (sec) ----------------
Time     = 4450000.000000 Temp     = 243.697197 Press    = -906.518952 
PotEng   = -10.357651 KinEng   = 0.724996 Lx       = 24.817749 
Ly       = 24.817749 Lz       = 24.817749 Density  = 1.002013 
Volume   = 15285.763704 
---------------- Step   900000 ----- CPU =    570.9406 (sec) ----------------
Time     = 4500000.000000 Temp     = 243.645423 Press    = 1079.117281 
PotEng   = -10.351941 KinEng   = 0.724842 Lx       = 24.795563 
Ly       = 24.795563 Lz       = 24.795563 Density  = 1.004705 
Volume   = 15244.807272 
---------------- Step   910000 ----- CPU =    577.2902 (sec) ----------------
Time     = 4550000.000000 Temp     = 253.716827 Press    = 209.337770 
PotEng   = -10.430234 KinEng   = 0.754805 Lx       = 24.860518 
Ly       = 24.860518 Lz       = 24.860518 Density  = 0.996850 
Volume   = 15364.928532 
---------------- Step   920000 ----- CPU =    583.6020 (sec) ----------------
Time     = 4600000.000000 Temp     = 236.919242 Press    = 351.670650 
PotEng   = -10.345502 KinEng   = 0.704832 Lx       = 24.875209 
Ly       = 24.875209 Lz       = 24.875209 Density  = 0.995085 
Volume   = 15392.183305 
---------------- Step   930000 ----- CPU =    589.9672 (sec) ----------------
Time     = 4650000.000000 Temp     = 263.492018 Press    = 977.699959 
PotEng   = -10.371687 KinEng   = 0.783886 Lx       = 24.745841 
Ly       = 24.745841 Lz       = 24.745841 Density  = 1.010774 
Volume   = 15153.279978 
---------------- Step   940000 ----- CPU =    596.3062 (sec) ----------------
Time     = 4700000.000000 Temp     = 247.655853 Press    = -86.366632 
PotEng   = -10.328994 KinEng   = 0.736773 Lx       = 24.821255 
Ly       = 24.821255 Lz       = 24.821255 Density  = 1.001588 
Volume   = 15292.244093 
---------------- Step   950000 ----- CPU =    602.6706 (sec) ----------------
Time     = 4750000.000000 Temp     = 261.803395 Press    = -138.877178 
PotEng   = -10.339468 KinEng   = 0.778862 Lx       = 24.804802 
Ly       = 24.804802 Lz       = 24.804802 Density  = 1.003583 
Volume   = 15261.853970 
---------------- Step   960000 ----- CPU =    609.0456 (sec) ----------------
Time     = 4800000.000000 Temp     = 252.837825 Press    = 1371.222801 
PotEng   = -10.298917 KinEng   = 0.752190 Lx       = 24.740019 
Ly       = 24.740019 Lz       = 24.740019 Density  = 1.011487 
Volume   = 15142.586977 
---------------- Step   970000 ----- CPU =    615.4154 (sec) ----------------
Time     = 4850000.000000 Temp     = 248.027613 Press    = 612.550524 
PotEng   = -10.301231 KinEng   = 0.737879 Lx       = 24.826221 
Ly       = 24.826221 Lz       = 24.826221 Density  = 1.000988 
Volume   = 15301.423499 
---------------- Step   980000 ----- CPU =    621.7312 (sec) ----------------
Time     = 4900000.000000 Temp     = 273.143984 Press    = 496.156464 
PotEng   = -10.395859 KinEng   = 0.812600 Lx       = 24.734693 
Ly       = 24.734693 Lz       = 24.734693 Density  = 1.012141 
Volume   = 15132.809692 
---------------- Step   990000 ----- CPU =    628.0952 (sec) ----------------
Time     = 4950000.000000 Temp     = 238.323738 Press    = 169.544346 
PotEng   = -10.374355 KinEng   = 0.709010 Lx       = 24.697680 
Ly       = 24.697680 Lz       = 24.697680 Density  = 1.016698 
Volume   = 15064.976938 
---------------- Step  1000000 ----- CPU =    634.4296 (sec) ----------------
Time     = 5000000.000000 Temp     = 268.824068 Press    = 70.625519 
PotEng   = -10.342824 KinEng   = 0.799748 Lx       = 24.713975 
Ly       = 24.713975 Lz       = 24.713975 Density  = 1.014688 
Volume   = 15094.816214 
Loop time of 634.43 on 6 procs for 1000000 steps with 512 atoms

Performance: 680.927 ns/day, 0.035 hours/ns, 1576.219 timesteps/s
97.0% CPU use with 6 MPI tasks x no OpenMP threads

MPI task timing breakdown:
Section |  min time  |  avg time  |  max time  |%varavg| %total
---------------------------------------------------------------
Pair    | 532.1      | 535.11     | 540.34     |  13.2 | 84.34
Neigh   | 14.652     | 14.678     | 14.699     |   0.4 |  2.31
Comm    | 65.667     | 70.862     | 73.717     |  37.0 | 11.17
Output  | 0.0024436  | 0.0045745  | 0.015188   |   7.0 |  0.00
Modify  | 11.065     | 11.326     | 11.624     |   5.2 |  1.79
Other   |            | 2.452      |            |       |  0.39

Nlocal:    85.3333 ave 91 max 80 min
Histogram: 2 0 0 0 1 0 1 1 0 1
Nghost:    572.333 ave 584 max 561 min
Histogram: 2 0 0 0 0 2 0 1 0 1
Neighs:    0 ave 0 max 0 min
Histogram: 6 0 0 0 0 0 0 0 0 0
FullNghs:  2879.67 ave 3095 max 2698 min
Histogram: 1 1 0 1 0 0 2 0 0 1

Total # of neighbors = 17278
Ave neighs/atom = 33.7461
Neighbor list builds = 58417
Dangerous builds = 0
Setting up Verlet run ...
  Unit style    : real
  Current step  : 1000000
  Time step     : 5
Per MPI rank memory allocation (min/avg/max) = 2.945 | 2.946 | 2.946 Mbytes
---------------- Step  1000000 ----- CPU =      0.0000 (sec) ----------------
Time     = 5000000.000000 Temp     = 268.824068 Press    = 70.625519 
PotEng   = -10.342824 KinEng   = 0.799748 Lx       = 24.713975 
Ly       = 24.713975 Lz       = 24.713975 Density  = 1.014688 
Volume   = 15094.816214 
---------------- Step  1010000 ----- CPU =      6.3438 (sec) ----------------
Time     = 5050000.000000 Temp     = 257.791512 Press    = 253.905370 
PotEng   = -10.301431 KinEng   = 0.766927 Lx       = 24.839703 
Ly       = 24.839703 Lz       = 24.839703 Density  = 0.999359 
Volume   = 15326.366193 
---------------- Step  1020000 ----- CPU =     12.6656 (sec) ----------------
Time     = 5100000.000000 Temp     = 244.575517 Press    = 1182.819190 
PotEng   = -10.316455 KinEng   = 0.727609 Lx       = 24.733139 
Ly       = 24.733139 Lz       = 24.733139 Density  = 1.012332 
Volume   = 15129.956838 
---------------- Step  1030000 ----- CPU =     19.0168 (sec) ----------------
Time     = 5150000.000000 Temp     = 248.012671 Press    = 1323.080801 
PotEng   = -10.270056 KinEng   = 0.737835 Lx       = 24.749946 
Ly       = 24.749946 Lz       = 24.749946 Density  = 1.010271 
Volume   = 15160.822358 
---------------- Step  1040000 ----- CPU =     25.3148 (sec) ----------------
Time     = 5200000.000000 Temp     = 246.548738 Press    = 192.931900 
PotEng   = -10.322585 KinEng   = 0.733480 Lx       = 24.688516 
Ly       = 24.688516 Lz       = 24.688516 Density  = 1.017831 
Volume   = 15048.213691 
---------------- Step  1050000 ----- CPU =     31.5952 (sec) ----------------
Time     = 5250000.000000 Temp     = 252.785937 Press    = 1144.794083 
PotEng   = -10.369794 KinEng   = 0.752035 Lx       = 24.771295 
Ly       = 24.771295 Lz       = 24.771295 Density  = 1.007661 
Volume   = 15200.089354 
---------------- Step  1060000 ----- CPU =     37.9600 (sec) ----------------
Time     = 5300000.000000 Temp     = 258.606853 Press    = 790.855842 
PotEng   = -10.356355 KinEng   = 0.769352 Lx       = 24.745650 
Ly       = 24.745650 Lz       = 24.745650 Density  = 1.010797 
Volume   = 15152.929173 
---------------- Step  1070000 ----- CPU =     44.2917 (sec) ----------------
Time     = 5350000.000000 Temp     = 244.016350 Press    = 92.664079 
PotEng   = -10.369120 KinEng   = 0.725946 Lx       = 24.765137 
Ly       = 24.765137 Lz       = 24.765137 Density  = 1.008413 
Volume   = 15188.755718 
---------------- Step  1080000 ----- CPU =     50.6567 (sec) ----------------
Time     = 5400000.000000 Temp     = 239.433336 Press    = -253.846891 
PotEng   = -10.345831 KinEng   = 0.712311 Lx       = 24.888209 
Ly       = 24.888209 Lz       = 24.888209 Density  = 0.993527 
Volume   = 15416.328241 
---------------- Step  1090000 ----- CPU =     56.9907 (sec) ----------------
Time     = 5450000.000000 Temp     = 248.240685 Press    = -574.846492 
PotEng   = -10.335384 KinEng   = 0.738513 Lx       = 24.857115 
Ly       = 24.857115 Lz       = 24.857115 Density  = 0.997260 
Volume   = 15358.619250 
---------------- Step  1100000 ----- CPU =     63.3505 (sec) ----------------
Time     = 5500000.000000 Temp     = 252.105734 Press    = -230.986160 
PotEng   = -10.302839 KinEng   = 0.750012 Lx       = 24.851967 
Ly       = 24.851967 Lz       = 24.851967 Density  = 0.997880 
Volume   = 15349.078558 
---------------- Step  1110000 ----- CPU =     69.7269 (sec) ----------------
Time     = 5550000.000000 Temp     = 254.750656 Press    = 34.341790 
PotEng   = -10.354141 KinEng   = 0.757880 Lx       = 24.766327 
Ly       = 24.766327 Lz       = 24.766327 Density  = 1.008267 
Volume   = 15190.945262 
---------------- Step  1120000 ----- CPU =     75.9927 (sec) ----------------
Time     = 5600000.000000 Temp     = 263.096150 Press    = 743.277315 
PotEng   = -10.324703 KinEng   = 0.782708 Lx       = 24.759378 
Ly       = 24.759378 Lz       = 24.759378 Density  = 1.009117 
Volume   = 15178.161516 
---------------- Step  1130000 ----- CPU =     82.3601 (sec) ----------------
Time     = 5650000.000000 Temp     = 240.031622 Press    = -218.470206 
PotEng   = -10.322052 KinEng   = 0.714091 Lx       = 24.826291 
Ly       = 24.826291 Lz       = 24.826291 Density  = 1.000979 
Volume   = 15301.553952 
---------------- Step  1140000 ----- CPU =     88.7173 (sec) ----------------
Time     = 5700000.000000 Temp     = 244.789661 Press    = 1504.054504 
PotEng   = -10.336342 KinEng   = 0.728246 Lx       = 24.745790 
Ly       = 24.745790 Lz       = 24.745790 Density  = 1.010780 
Volume   = 15153.187007 
---------------- Step  1150000 ----- CPU =     95.0519 (sec) ----------------
Time     = 5750000.000000 Temp     = 238.269491 Press    = -2343.792092 
PotEng   = -10.276038 KinEng   = 0.708849 Lx       = 24.972963 
Ly       = 24.972963 Lz       = 24.972963 Density  = 0.983446 
Volume   = 15574.360007 
---------------- Step  1160000 ----- CPU =    101.3960 (sec) ----------------
Time     = 5800000.000000 Temp     = 253.186948 Press    = -339.029498 
PotEng   = -10.309987 KinEng   = 0.753228 Lx       = 24.825601 
Ly       = 24.825601 Lz       = 24.825601 Density  = 1.001063 
Volume   = 15300.277207 
---------------- Step  1170000 ----- CPU =    107.7736 (sec) ----------------
Time     = 5850000.000000 Temp     = 243.200433 Press    = 56.449405 
PotEng   = -10.421234 KinEng   = 0.723518 Lx       = 24.748616 
Ly       = 24.748616 Lz       = 24.748616 Density  = 1.010434 
Volume   = 15158.378321 
---------------- Step  1180000 ----- CPU =    114.1258 (sec) ----------------
Time     = 5900000.000000 Temp     = 249.223839 Press    = 1391.021535 
PotEng   = -10.395929 KinEng   = 0.741438 Lx       = 24.741090 
Ly       = 24.741090 Lz       = 24.741090 Density  = 1.011356 
Volume   = 15144.554849 
---------------- Step  1190000 ----- CPU =    120.4941 (sec) ----------------
Time     = 5950000.000000 Temp     = 248.453541 Press    = -1004.264992 
PotEng   = -10.375370 KinEng   = 0.739146 Lx       = 24.744247 
Ly       = 24.744247 Lz       = 24.744247 Density  = 1.010969 
Volume   = 15150.351551 
---------------- Step  1200000 ----- CPU =    126.8361 (sec) ----------------
Time     = 6000000.000000 Temp     = 253.932096 Press    = -733.514851 
PotEng   = -10.302186 KinEng   = 0.755445 Lx       = 24.890721 
Ly       = 24.890721 Lz       = 24.890721 Density  = 0.993226 
Volume   = 15420.996967 
---------------- Step  1210000 ----- CPU =    133.1558 (sec) ----------------
Time     = 6050000.000000 Temp     = 252.900378 Press    = 848.198722 
PotEng   = -10.362250 KinEng   = 0.752376 Lx       = 24.824156 
Ly       = 24.824156 Lz       = 24.824156 Density  = 1.001237 
Volume   = 15297.605232 
---------------- Step  1220000 ----- CPU =    139.5367 (sec) ----------------
Time     = 6100000.000000 Temp     = 262.298618 Press    = 428.085611 
PotEng   = -10.315221 KinEng   = 0.780335 Lx       = 24.753593 
Ly       = 24.753593 Lz       = 24.753593 Density  = 1.009824 
Volume   = 15167.525793 
---------------- Step  1230000 ----- CPU =    145.8359 (sec) ----------------
Time     = 6150000.000000 Temp     = 258.101329 Press    = 400.517457 
PotEng   = -10.385612 KinEng   = 0.767848 Lx       = 24.731961 
Ly       = 24.731961 Lz       = 24.731961 Density  = 1.012476 
Volume   = 15127.795872 
---------------- Step  1240000 ----- CPU =    152.1805 (sec) ----------------
Time     = 6200000.000000 Temp     = 254.047917 Press    = -34.783022 
PotEng   = -10.293221 KinEng   = 0.755790 Lx       = 24.815945 
Ly       = 24.815945 Lz       = 24.815945 Density  = 1.002232 
Volume   = 15282.430653 
---------------- Step  1250000 ----- CPU =    158.5784 (sec) ----------------
Time     = 6250000.000000 Temp     = 247.080617 Press    = -485.310194 
PotEng   = -10.309168 KinEng   = 0.735062 Lx       = 24.820044 
Ly       = 24.820044 Lz       = 24.820044 Density  = 1.001735 
Volume   = 15290.004894 
---------------- Step  1260000 ----- CPU =    164.8833 (sec) ----------------
Time     = 6300000.000000 Temp     = 245.978179 Press    = -930.154732 
PotEng   = -10.337739 KinEng   = 0.731782 Lx       = 24.963198 
Ly       = 24.963198 Lz       = 24.963198 Density  = 0.984600 
Volume   = 15556.098141 
---------------- Step  1270000 ----- CPU =    171.1739 (sec) ----------------
Time     = 6350000.000000 Temp     = 244.185464 Press    = 1344.795788 
PotEng   = -10.289828 KinEng   = 0.726449 Lx       = 24.712414 
Ly       = 24.712414 Lz       = 24.712414 Density  = 1.014881 
Volume   = 15091.954916 
---------------- Step  1280000 ----- CPU =    177.5113 (sec) ----------------
Time     = 6400000.000000 Temp     = 249.437464 Press    = 486.967608 
PotEng   = -10.309284 KinEng   = 0.742074 Lx       = 24.735742 
Ly       = 24.735742 Lz       = 24.735742 Density  = 1.012012 
Volume   = 15134.734737 
---------------- Step  1290000 ----- CPU =    183.8997 (sec) ----------------
Time     = 6450000.000000 Temp     = 246.695699 Press    = -438.402300 
PotEng   = -10.293490 KinEng   = 0.733917 Lx       = 24.793475 
Ly       = 24.793475 Lz       = 24.793475 Density  = 1.004959 
Volume   = 15240.956386 
---------------- Step  1300000 ----- CPU =    190.2293 (sec) ----------------
Time     = 6500000.000000 Temp     = 247.089359 Press    = -567.888694 
PotEng   = -10.278932 KinEng   = 0.735088 Lx       = 24.889016 
Ly       = 24.889016 Lz       = 24.889016 Density  = 0.993430 
Volume   = 15417.828359 
---------------- Step  1310000 ----- CPU =    196.6283 (sec) ----------------
Time     = 6550000.000000 Temp     = 256.676293 Press    = 683.455168 
PotEng   = -10.330736 KinEng   = 0.763609 Lx       = 24.916272 
Ly       = 24.916272 Lz       = 24.916272 Density  = 0.990174 
Volume   = 15468.535100 
---------------- Step  1320000 ----- CPU =    202.9478 (sec) ----------------
Time     = 6600000.000000 Temp     = 255.868604 Press    = 349.447371 
PotEng   = -10.282572 KinEng   = 0.761206 Lx       = 24.784752 
Ly       = 24.784752 Lz       = 24.784752 Density  = 1.006020 
Volume   = 15224.874906 
---------------- Step  1330000 ----- CPU =    209.2407 (sec) ----------------
Time     = 6650000.000000 Temp     = 248.180807 Press    = 399.886536 
PotEng   = -10.363185 KinEng   = 0.738335 Lx       = 24.850753 
Ly       = 24.850753 Lz       = 24.850753 Density  = 0.998026 
Volume   = 15346.829021 
---------------- Step  1340000 ----- CPU =    215.5390 (sec) ----------------
Time     = 6700000.000000 Temp     = 249.598934 Press    = 240.123354 
PotEng   = -10.340624 KinEng   = 0.742554 Lx       = 24.894333 
Ly       = 24.894333 Lz       = 24.894333 Density  = 0.992794 
Volume   = 15427.710121 
---------------- Step  1350000 ----- CPU =    221.9520 (sec) ----------------
Time     = 6750000.000000 Temp     = 225.604540 Press    = 231.356320 
PotEng   = -10.351351 KinEng   = 0.671171 Lx       = 24.745453 
Ly       = 24.745453 Lz       = 24.745453 Density  = 1.010821 
Volume   = 15152.567081 
---------------- Step  1360000 ----- CPU =    228.3009 (sec) ----------------
Time     = 6800000.000000 Temp     = 251.563622 Press    = -465.746638 
PotEng   = -10.350768 KinEng   = 0.748399 Lx       = 24.800136 
Ly       = 24.800136 Lz       = 24.800136 Density  = 1.004149 
Volume   = 15253.242931 
---------------- Step  1370000 ----- CPU =    234.6629 (sec) ----------------
Time     = 6850000.000000 Temp     = 237.736320 Press    = -178.998064 
PotEng   = -10.290510 KinEng   = 0.707263 Lx       = 24.808538 
Ly       = 24.808538 Lz       = 24.808538 Density  = 1.003130 
Volume   = 15268.750253 
---------------- Step  1380000 ----- CPU =    240.9839 (sec) ----------------
Time     = 6900000.000000 Temp     = 260.514255 Press    = 615.565314 
PotEng   = -10.386691 KinEng   = 0.775027 Lx       = 24.771232 
Ly       = 24.771232 Lz       = 24.771232 Density  = 1.007669 
Volume   = 15199.972465 
---------------- Step  1390000 ----- CPU =    247.3738 (sec) ----------------
Time     = 6950000.000000 Temp     = 238.558141 Press    = 775.508180 
PotEng   = -10.320051 KinEng   = 0.709708 Lx       = 24.741275 
Ly       = 24.741275 Lz       = 24.741275 Density  = 1.011333 
Volume   = 15144.893073 
---------------- Step  1400000 ----- CPU =    253.7340 (sec) ----------------
Time     = 7000000.000000 Temp     = 262.263043 Press    = 152.516539 
PotEng   = -10.329693 KinEng   = 0.780229 Lx       = 24.770948 
Ly       = 24.770948 Lz       = 24.770948 Density  = 1.007703 
Volume   = 15199.449706 
---------------- Step  1410000 ----- CPU =    260.0811 (sec) ----------------
Time     = 7050000.000000 Temp     = 265.278538 Press    = 510.912523 
PotEng   = -10.351924 KinEng   = 0.789201 Lx       = 24.833657 
Ly       = 24.833657 Lz       = 24.833657 Density  = 1.000089 
Volume   = 15315.177754 
---------------- Step  1420000 ----- CPU =    266.4324 (sec) ----------------
Time     = 7100000.000000 Temp     = 253.066798 Press    = -89.715595 
PotEng   = -10.315095 KinEng   = 0.752871 Lx       = 24.901944 
Ly       = 24.901944 Lz       = 24.901944 Density  = 0.991884 
Volume   = 15441.865947 
---------------- Step  1430000 ----- CPU =    272.8267 (sec) ----------------
Time     = 7150000.000000 Temp     = 258.855840 Press    = -232.375522 
PotEng   = -10.246111 KinEng   = 0.770093 Lx       = 24.825569 
Ly       = 24.825569 Lz       = 24.825569 Density  = 1.001066 
Volume   = 15300.218436 
---------------- Step  1440000 ----- CPU =    279.1880 (sec) ----------------
Time     = 7200000.000000 Temp     = 252.519749 Press    = 203.364426 
PotEng   = -10.384458 KinEng   = 0.751243 Lx       = 24.779390 
Ly       = 24.779390 Lz       = 24.779390 Density  = 1.006674 
Volume   = 15214.995830 
---------------- Step  1450000 ----- CPU =    285.5372 (sec) ----------------
Time     = 7250000.000000 Temp     = 240.229006 Press    = 224.392872 
PotEng   = -10.378505 KinEng   = 0.714678 Lx       = 24.732866 
Ly       = 24.732866 Lz       = 24.732866 Density  = 1.012365 
Volume   = 15129.457384 
---------------- Step  1460000 ----- CPU =    291.8898 (sec) ----------------
Time     = 7300000.000000 Temp     = 261.147200 Press    = -573.769148 
PotEng   = -10.412740 KinEng   = 0.776910 Lx       = 24.817907 
Ly       = 24.817907 Lz       = 24.817907 Density  = 1.001994 
Volume   = 15286.055607 
---------------- Step  1470000 ----- CPU =    298.2357 (sec) ----------------
Time     = 7350000.000000 Temp     = 256.510830 Press    = -213.138482 
PotEng   = -10.313732 KinEng   = 0.763117 Lx       = 24.886487 
Ly       = 24.886487 Lz       = 24.886487 Density  = 0.993733 
Volume   = 15413.127987 
---------------- Step  1480000 ----- CPU =    304.4997 (sec) ----------------
Time     = 7400000.000000 Temp     = 256.278219 Press    = 100.113184 
PotEng   = -10.406316 KinEng   = 0.762425 Lx       = 24.772653 
Ly       = 24.772653 Lz       = 24.772653 Density  = 1.007495 
Volume   = 15202.589238 
---------------- Step  1490000 ----- CPU =    310.8150 (sec) ----------------
Time     = 7450000.000000 Temp     = 269.078413 Press    = -923.099255 
PotEng   = -10.353533 KinEng   = 0.800505 Lx       = 24.878011 
Ly       = 24.878011 Lz       = 24.878011 Density  = 0.994749 
Volume   = 15397.384040 
---------------- Step  1500000 ----- CPU =    317.1832 (sec) ----------------
Time     = 7500000.000000 Temp     = 271.721732 Press    = 170.149563 
PotEng   = -10.270470 KinEng   = 0.808369 Lx       = 24.843532 
Ly       = 24.843532 Lz       = 24.843532 Density  = 0.998896 
Volume   = 15333.455564 
---------------- Step  1510000 ----- CPU =    323.5504 (sec) ----------------
Time     = 7550000.000000 Temp     = 245.188472 Press    = -702.061765 
PotEng   = -10.384588 KinEng   = 0.729433 Lx       = 24.875221 
Ly       = 24.875221 Lz       = 24.875221 Density  = 0.995084 
Volume   = 15392.205582 
---------------- Step  1520000 ----- CPU =    329.9179 (sec) ----------------
Time     = 7600000.000000 Temp     = 260.937674 Press    = 367.591461 
PotEng   = -10.353247 KinEng   = 0.776286 Lx       = 24.718618 
Ly       = 24.718618 Lz       = 24.718618 Density  = 1.014117 
Volume   = 15103.324757 
---------------- Step  1530000 ----- CPU =    336.2885 (sec) ----------------
Time     = 7650000.000000 Temp     = 255.706893 Press    = -257.813584 
PotEng   = -10.321968 KinEng   = 0.760725 Lx       = 24.807931 
Ly       = 24.807931 Lz       = 24.807931 Density  = 1.003203 
Volume   = 15267.629989 
---------------- Step  1540000 ----- CPU =    342.5862 (sec) ----------------
Time     = 7700000.000000 Temp     = 240.304850 Press    = -166.036016 
PotEng   = -10.352608 KinEng   = 0.714904 Lx       = 24.728487 
Ly       = 24.728487 Lz       = 24.728487 Density  = 1.012903 
Volume   = 15121.422534 
---------------- Step  1550000 ----- CPU =    348.9109 (sec) ----------------
Time     = 7750000.000000 Temp     = 246.524048 Press    = -607.127590 
PotEng   = -10.352955 KinEng   = 0.733406 Lx       = 24.915157 
Ly       = 24.915157 Lz       = 24.915157 Density  = 0.990307 
Volume   = 15466.458799 
---------------- Step  1560000 ----- CPU =    355.2099 (sec) ----------------
Time     = 7800000.000000 Temp     = 255.722646 Press    = 326.511857 
PotEng   = -10.324520 KinEng   = 0.760772 Lx       = 24.779314 
Ly       = 24.779314 Lz       = 24.779314 Density  = 1.006683 
Volume   = 15214.856135 
---------------- Step  1570000 ----- CPU =    361.6054 (sec) ----------------
Time     = 7850000.000000 Temp     = 257.429014 Press    = -1027.403384 
PotEng   = -10.310751 KinEng   = 0.765848 Lx       = 24.851514 
Ly       = 24.851514 Lz       = 24.851514 Density  = 0.997934 
Volume   = 15348.239383 
---------------- Step  1580000 ----- CPU =    367.9909 (sec) ----------------
Time     = 7900000.000000 Temp     = 262.224955 Press    = -987.647925 
PotEng   = -10.327816 KinEng   = 0.780116 Lx       = 24.879269 
Ly       = 24.879269 Lz       = 24.879269 Density  = 0.994598 
Volume   = 15399.720024 
---------------- Step  1590000 ----- CPU =    374.3526 (sec) ----------------
Time     = 7950000.000000 Temp     = 255.789328 Press    = -279.764733 
PotEng   = -10.347676 KinEng   = 0.760970 Lx       = 24.828987 
Ly       = 24.828987 Lz       = 24.828987 Density  = 1.000653 
Volume   = 15306.539591 
---------------- Step  1600000 ----- CPU =    380.6662 (sec) ----------------
Time     = 8000000.000000 Temp     = 245.674906 Press    = -1067.576245 
PotEng   = -10.276801 KinEng   = 0.730880 Lx       = 24.940224 
Ly       = 24.940224 Lz       = 24.940224 Density  = 0.987323 
Volume   = 15513.188565 
---------------- Step  1610000 ----- CPU =    387.0052 (sec) ----------------
Time     = 8050000.000000 Temp     = 245.051549 Press    = 393.229577 
PotEng   = -10.335066 KinEng   = 0.729025 Lx       = 24.804899 
Ly       = 24.804899 Lz       = 24.804899 Density  = 1.003571 
Volume   = 15262.033204 
---------------- Step  1620000 ----- CPU =    393.3944 (sec) ----------------
Time     = 8100000.000000 Temp     = 261.069101 Press    = -622.354279 
PotEng   = -10.318725 KinEng   = 0.776677 Lx       = 24.696640 
Ly       = 24.696640 Lz       = 24.696640 Density  = 1.016827 
Volume   = 15063.074852 
---------------- Step  1630000 ----- CPU =    399.7578 (sec) ----------------
Time     = 8150000.000000 Temp     = 254.226027 Press    = -123.540036 
PotEng   = -10.312283 KinEng   = 0.756319 Lx       = 24.790765 
Ly       = 24.790765 Lz       = 24.790765 Density  = 1.005289 
Volume   = 15235.957994 
---------------- Step  1640000 ----- CPU =    406.1172 (sec) ----------------
Time     = 8200000.000000 Temp     = 250.857956 Press    = -428.215281 
PotEng   = -10.282914 KinEng   = 0.746299 Lx       = 24.744631 
Ly       = 24.744631 Lz       = 24.744631 Density  = 1.010922 
Volume   = 15151.057890 
---------------- Step  1650000 ----- CPU =    412.4125 (sec) ----------------
Time     = 8250000.000000 Temp     = 245.916251 Press    = -13.368204 
PotEng   = -10.355856 KinEng   = 0.731598 Lx       = 24.781154 
Ly       = 24.781154 Lz       = 24.781154 Density  = 1.006459 
Volume   = 15218.246096 
---------------- Step  1660000 ----- CPU =    418.7525 (sec) ----------------
Time     = 8300000.000000 Temp     = 254.218865 Press    = 86.412514 
PotEng   = -10.314514 KinEng   = 0.756298 Lx       = 24.783234 
Ly       = 24.783234 Lz       = 24.783234 Density  = 1.006205 
Volume   = 15222.076867 
---------------- Step  1670000 ----- CPU =    425.0414 (sec) ----------------
Time     = 8350000.000000 Temp     = 239.889538 Press    = -119.316256 
PotEng   = -10.318099 KinEng   = 0.713669 Lx       = 24.914917 
Ly       = 24.914917 Lz       = 24.914917 Density  = 0.990335 
Volume   = 15466.011608 
---------------- Step  1680000 ----- CPU =    431.3661 (sec) ----------------
Time     = 8400000.000000 Temp     = 253.501448 Press    = -251.550607 
PotEng   = -10.352071 KinEng   = 0.754164 Lx       = 24.801880 
Ly       = 24.801880 Lz       = 24.801880 Density  = 1.003938 
Volume   = 15256.461843 
---------------- Step  1690000 ----- CPU =    437.6957 (sec) ----------------
Time     = 8450000.000000 Temp     = 253.354363 Press    = -165.110446 
PotEng   = -10.359216 KinEng   = 0.753726 Lx       = 24.801444 
Ly       = 24.801444 Lz       = 24.801444 Density  = 1.003991 
Volume   = 15255.656901 
---------------- Step  1700000 ----- CPU =    444.0744 (sec) ----------------
Time     = 8500000.000000 Temp     = 248.839562 Press    = -358.678223 
PotEng   = -10.212912 KinEng   = 0.740295 Lx       = 24.804509 
Ly       = 24.804509 Lz       = 24.804509 Density  = 1.003618 
Volume   = 15261.313323 
---------------- Step  1710000 ----- CPU =    450.3991 (sec) ----------------
Time     = 8550000.000000 Temp     = 246.205496 Press    = 146.565739 
PotEng   = -10.359843 KinEng   = 0.732458 Lx       = 24.749715 
Ly       = 24.749715 Lz       = 24.749715 Density  = 1.010299 
Volume   = 15160.398317 
---------------- Step  1720000 ----- CPU =    456.7592 (sec) ----------------
Time     = 8600000.000000 Temp     = 264.380782 Press    = -403.794785 
PotEng   = -10.282890 KinEng   = 0.786530 Lx       = 24.813893 
Ly       = 24.813893 Lz       = 24.813893 Density  = 1.002480 
Volume   = 15278.640616 
---------------- Step  1730000 ----- CPU =    463.1185 (sec) ----------------
Time     = 8650000.000000 Temp     = 244.085568 Press    = -649.654057 
PotEng   = -10.308105 KinEng   = 0.726152 Lx       = 24.879707 
Ly       = 24.879707 Lz       = 24.879707 Density  = 0.994546 
Volume   = 15400.533883 
---------------- Step  1740000 ----- CPU =    469.4023 (sec) ----------------
Time     = 8700000.000000 Temp     = 265.075497 Press    = 517.771862 
PotEng   = -10.417806 KinEng   = 0.788596 Lx       = 24.885126 
Ly       = 24.885126 Lz       = 24.885126 Density  = 0.993896 
Volume   = 15410.599772 
---------------- Step  1750000 ----- CPU =    475.6837 (sec) ----------------
Time     = 8750000.000000 Temp     = 261.866098 Press    = -246.748032 
PotEng   = -10.343428 KinEng   = 0.779049 Lx       = 24.805859 
Ly       = 24.805859 Lz       = 24.805859 Density  = 1.003455 
Volume   = 15263.805743 
---------------- Step  1760000 ----- CPU =    482.0126 (sec) ----------------
Time     = 8800000.000000 Temp     = 245.120304 Press    = 750.698083 
PotEng   = -10.315793 KinEng   = 0.729230 Lx       = 24.783143 
Ly       = 24.783143 Lz       = 24.783143 Density  = 1.006216 
Volume   = 15221.910231 
---------------- Step  1770000 ----- CPU =    488.3052 (sec) ----------------
Time     = 8850000.000000 Temp     = 263.679244 Press    = 980.573024 
PotEng   = -10.355149 KinEng   = 0.784443 Lx       = 24.701385 
Ly       = 24.701385 Lz       = 24.701385 Density  = 1.016241 
Volume   = 15071.758567 
---------------- Step  1780000 ----- CPU =    494.6797 (sec) ----------------
Time     = 8900000.000000 Temp     = 245.501687 Press    = 81.749313 
PotEng   = -10.378073 KinEng   = 0.730365 Lx       = 24.728844 
Ly       = 24.728844 Lz       = 24.728844 Density  = 1.012859 
Volume   = 15122.076185 
---------------- Step  1790000 ----- CPU =    500.9714 (sec) ----------------
Time     = 8950000.000000 Temp     = 255.658751 Press    = -453.440712 
PotEng   = -10.386010 KinEng   = 0.760582 Lx       = 24.894063 
Ly       = 24.894063 Lz       = 24.894063 Density  = 0.992826 
Volume   = 15427.208841 
---------------- Step  1800000 ----- CPU =    507.2608 (sec) ----------------
Time     = 9000000.000000 Temp     = 273.949856 Press    = 475.267636 
PotEng   = -10.402745 KinEng   = 0.814998 Lx       = 24.777929 
Ly       = 24.777929 Lz       = 24.777929 Density  = 1.006852 
Volume   = 15212.305035 
---------------- Step  1810000 ----- CPU =    513.5769 (sec) ----------------
Time     = 9050000.000000 Temp     = 240.417689 Press    = 321.754789 
PotEng   = -10.408369 KinEng   = 0.715240 Lx       = 24.820157 
Ly       = 24.820157 Lz       = 24.820157 Density  = 1.001721 
Volume   = 15290.214203 
---------------- Step  1820000 ----- CPU =    519.9775 (sec) ----------------
Time     = 9100000.000000 Temp     = 254.921675 Press    = 6.172543 
PotEng   = -10.351948 KinEng   = 0.758389 Lx       = 24.748685 
Ly       = 24.748685 Lz       = 24.748685 Density  = 1.010425 
Volume   = 15158.505014 
---------------- Step  1830000 ----- CPU =    526.3299 (sec) ----------------
Time     = 9150000.000000 Temp     = 251.463675 Press    = -464.848545 
PotEng   = -10.309306 KinEng   = 0.748101 Lx       = 24.841229 
Ly       = 24.841229 Lz       = 24.841229 Density  = 0.999174 
Volume   = 15329.191835 
---------------- Step  1840000 ----- CPU =    532.6728 (sec) ----------------
Time     = 9200000.000000 Temp     = 247.180056 Press    = -111.321535 
PotEng   = -10.316498 KinEng   = 0.735358 Lx       = 24.790785 
Ly       = 24.790785 Lz       = 24.790785 Density  = 1.005286 
Volume   = 15235.995433 
---------------- Step  1850000 ----- CPU =    538.9949 (sec) ----------------
Time     = 9250000.000000 Temp     = 266.309891 Press    = -1640.942697 
PotEng   = -10.325823 KinEng   = 0.792269 Lx       = 24.854283 
Ly       = 24.854283 Lz       = 24.854283 Density  = 0.997601 
Volume   = 15353.370686 
---------------- Step  1860000 ----- CPU =    545.3136 (sec) ----------------
Time     = 9300000.000000 Temp     = 245.204650 Press    = -404.369735 
PotEng   = -10.379961 KinEng   = 0.729481 Lx       = 24.817219 
Ly       = 24.817219 Lz       = 24.817219 Density  = 1.002077 
Volume   = 15284.785075 
---------------- Step  1870000 ----- CPU =    551.6894 (sec) ----------------
Time     = 9350000.000000 Temp     = 245.700728 Press    = 661.245471 
PotEng   = -10.303955 KinEng   = 0.730957 Lx       = 24.781644 
Ly       = 24.781644 Lz       = 24.781644 Density  = 1.006399 
Volume   = 15219.147965 
---------------- Step  1880000 ----- CPU =    558.0414 (sec) ----------------
Time     = 9400000.000000 Temp     = 248.739789 Press    = 105.908576 
PotEng   = -10.346743 KinEng   = 0.739998 Lx       = 24.778329 
Ly       = 24.778329 Lz       = 24.778329 Density  = 1.006803 
Volume   = 15213.040561 
---------------- Step  1890000 ----- CPU =    564.3444 (sec) ----------------
Time     = 9450000.000000 Temp     = 256.607476 Press    = -370.239248 
PotEng   = -10.477363 KinEng   = 0.763404 Lx       = 24.858562 
Ly       = 24.858562 Lz       = 24.858562 Density  = 0.997086 
Volume   = 15361.301985 
---------------- Step  1900000 ----- CPU =    570.6824 (sec) ----------------
Time     = 9500000.000000 Temp     = 244.333637 Press    = 1093.083629 
PotEng   = -10.318124 KinEng   = 0.726890 Lx       = 24.750165 
Ly       = 24.750165 Lz       = 24.750165 Density  = 1.010244 
Volume   = 15161.224822 
---------------- Step  1910000 ----- CPU =    577.0020 (sec) ----------------
Time     = 9550000.000000 Temp     = 246.094802 Press    = 537.546376 
PotEng   = -10.371263 KinEng   = 0.732129 Lx       = 24.718958 
Ly       = 24.718958 Lz       = 24.718958 Density  = 1.014075 
Volume   = 15103.948812 
---------------- Step  1920000 ----- CPU =    583.3699 (sec) ----------------
Time     = 9600000.000000 Temp     = 263.188385 Press    = 157.640335 
PotEng   = -10.390792 KinEng   = 0.782982 Lx       = 24.812341 
Ly       = 24.812341 Lz       = 24.812341 Density  = 1.002668 
Volume   = 15275.774421 
---------------- Step  1930000 ----- CPU =    589.6961 (sec) ----------------
Time     = 9650000.000000 Temp     = 263.323776 Press    = -510.297888 
PotEng   = -10.344295 KinEng   = 0.783385 Lx       = 24.936640 
Ly       = 24.936640 Lz       = 24.936640 Density  = 0.987749 
Volume   = 15506.499967 
---------------- Step  1940000 ----- CPU =    596.0541 (sec) ----------------
Time     = 9700000.000000 Temp     = 269.289019 Press    = 230.552863 
PotEng   = -10.318060 KinEng   = 0.801132 Lx       = 24.789619 
Ly       = 24.789619 Lz       = 24.789619 Density  = 1.005428 
Volume   = 15233.845530 
---------------- Step  1950000 ----- CPU =    602.3633 (sec) ----------------
Time     = 9750000.000000 Temp     = 250.809987 Press    = 785.041798 
PotEng   = -10.328408 KinEng   = 0.746157 Lx       = 24.688391 
Ly       = 24.688391 Lz       = 24.688391 Density  = 1.017846 
Volume   = 15047.985168 
---------------- Step  1960000 ----- CPU =    608.7158 (sec) ----------------
Time     = 9800000.000000 Temp     = 246.831592 Press    = -226.486073 
PotEng   = -10.327538 KinEng   = 0.734321 Lx       = 24.894819 
Ly       = 24.894819 Lz       = 24.894819 Density  = 0.992736 
Volume   = 15428.614831 
---------------- Step  1970000 ----- CPU =    615.0332 (sec) ----------------
Time     = 9850000.000000 Temp     = 245.564432 Press    = 640.956036 
PotEng   = -10.357961 KinEng   = 0.730551 Lx       = 24.754160 
Ly       = 24.754160 Lz       = 24.754160 Density  = 1.009755 
Volume   = 15168.567085 
---------------- Step  1980000 ----- CPU =    621.3694 (sec) ----------------
Time     = 9900000.000000 Temp     = 260.891236 Press    = -997.327421 
PotEng   = -10.304149 KinEng   = 0.776148 Lx       = 24.816326 
Ly       = 24.816326 Lz       = 24.816326 Density  = 1.002185 
Volume   = 15283.134973 
---------------- Step  1990000 ----- CPU =    627.6847 (sec) ----------------
Time     = 9950000.000000 Temp     = 255.140992 Press    = 663.120010 
PotEng   = -10.429414 KinEng   = 0.759041 Lx       = 24.774599 
Ly       = 24.774599 Lz       = 24.774599 Density  = 1.007258 
Volume   = 15206.172301 
---------------- Step  2000000 ----- CPU =    634.0275 (sec) ----------------
Time     = 10000000.000000 Temp     = 259.089076 Press    = -693.189288 
PotEng   = -10.355075 KinEng   = 0.770787 Lx       = 24.871487 
Ly       = 24.871487 Lz       = 24.871487 Density  = 0.995532 
Volume   = 15385.275046 
---------------- Step  2010000 ----- CPU =    640.3435 (sec) ----------------
Time     = 10050000.000000 Temp     = 230.791770 Press    = 564.121825 
PotEng   = -10.284877 KinEng   = 0.686603 Lx       = 24.768013 
Ly       = 24.768013 Lz       = 24.768013 Density  = 1.008061 
Volume   = 15194.048477 
---------------- Step  2020000 ----- CPU =    646.6599 (sec) ----------------
Time     = 10100000.000000 Temp     = 256.061366 Press    = 69.922300 
PotEng   = -10.322122 KinEng   = 0.761780 Lx       = 24.841784 
Ly       = 24.841784 Lz       = 24.841784 Density  = 0.999107 
Volume   = 15330.217838 
---------------- Step  2030000 ----- CPU =    652.9985 (sec) ----------------
Time     = 10150000.000000 Temp     = 245.228780 Press    = 645.926785 
PotEng   = -10.460951 KinEng   = 0.729553 Lx       = 24.894522 
Ly       = 24.894522 Lz       = 24.894522 Density  = 0.992771 
Volume   = 15428.061221 
---------------- Step  2040000 ----- CPU =    659.2773 (sec) ----------------
Time     = 10200000.000000 Temp     = 256.182630 Press    = 379.523827 
PotEng   = -10.354413 KinEng   = 0.762140 Lx       = 24.736870 
Ly       = 24.736870 Lz       = 24.736870 Density  = 1.011874 
Volume   = 15136.806515 
---------------- Step  2050000 ----- CPU =    665.5665 (sec) ----------------
Time     = 10250000.000000 Temp     = 239.666586 Press    = 243.822838 
PotEng   = -10.458613 KinEng   = 0.713005 Lx       = 24.819362 
Ly       = 24.819362 Lz       = 24.819362 Density  = 1.001818 
Volume   = 15288.745912 
---------------- Step  2060000 ----- CPU =    671.8831 (sec) ----------------
Time     = 10300000.000000 Temp     = 246.884528 Press    = 196.443374 
PotEng   = -10.357896 KinEng   = 0.734479 Lx       = 24.722666 
Ly       = 24.722666 Lz       = 24.722666 Density  = 1.013619 
Volume   = 15110.745283 
---------------- Step  2070000 ----- CPU =    678.2480 (sec) ----------------
Time     = 10350000.000000 Temp     = 236.493957 Press    = 144.751212 
PotEng   = -10.318167 KinEng   = 0.703567 Lx       = 24.795539 
Ly       = 24.795539 Lz       = 24.795539 Density  = 1.004708 
Volume   = 15244.761897 
---------------- Step  2080000 ----- CPU =    684.5809 (sec) ----------------
Time     = 10400000.000000 Temp     = 244.690126 Press    = -536.617001 
PotEng   = -10.376369 KinEng   = 0.727950 Lx       = 24.830529 
Ly       = 24.830529 Lz       = 24.830529 Density  = 1.000467 
Volume   = 15309.390189 
---------------- Step  2090000 ----- CPU =    690.9822 (sec) ----------------
Time     = 10450000.000000 Temp     = 236.256078 Press    = -1408.948378 
PotEng   = -10.402366 KinEng   = 0.702859 Lx       = 24.888239 
Ly       = 24.888239 Lz       = 24.888239 Density  = 0.993523 
Volume   = 15416.383231 
---------------- Step  2100000 ----- CPU =    697.3279 (sec) ----------------
Time     = 10500000.000000 Temp     = 240.844609 Press    = -338.423009 
PotEng   = -10.416936 KinEng   = 0.716510 Lx       = 24.741755 
Ly       = 24.741755 Lz       = 24.741755 Density  = 1.011274 
Volume   = 15145.775909 
---------------- Step  2110000 ----- CPU =    703.7177 (sec) ----------------
Time     = 10550000.000000 Temp     = 245.191537 Press    = -454.004596 
PotEng   = -10.335963 KinEng   = 0.729442 Lx       = 24.767024 
Ly       = 24.767024 Lz       = 24.767024 Density  = 1.008182 
Volume   = 15192.227836 
---------------- Step  2120000 ----- CPU =    710.1262 (sec) ----------------
Time     = 10600000.000000 Temp     = 266.823423 Press    = -899.628533 
PotEng   = -10.364311 KinEng   = 0.793797 Lx       = 24.832917 
Ly       = 24.832917 Lz       = 24.832917 Density  = 1.000178 
Volume   = 15313.808051 
---------------- Step  2130000 ----- CPU =    716.5655 (sec) ----------------
Time     = 10650000.000000 Temp     = 249.253363 Press    = -26.931841 
PotEng   = -10.304777 KinEng   = 0.741526 Lx       = 24.760588 
Ly       = 24.760588 Lz       = 24.760588 Density  = 1.008969 
Volume   = 15180.387267 
---------------- Step  2140000 ----- CPU =    722.8667 (sec) ----------------
Time     = 10700000.000000 Temp     = 252.728850 Press    = -451.951948 
PotEng   = -10.376813 KinEng   = 0.751865 Lx       = 24.861394 
Ly       = 24.861394 Lz       = 24.861394 Density  = 0.996745 
Volume   = 15366.552489 
---------------- Step  2150000 ----- CPU =    729.1877 (sec) ----------------
Time     = 10750000.000000 Temp     = 262.787193 Press    = 918.306041 
PotEng   = -10.362773 KinEng   = 0.781789 Lx       = 24.702251 
Ly       = 24.702251 Lz       = 24.702251 Density  = 1.016134 
Volume   = 15073.343410 
---------------- Step  2160000 ----- CPU =    735.6027 (sec) ----------------
Time     = 10800000.000000 Temp     = 248.684659 Press    = 614.825864 
PotEng   = -10.342016 KinEng   = 0.739834 Lx       = 24.800053 
Ly       = 24.800053 Lz       = 24.800053 Density  = 1.004160 
Volume   = 15253.088903 
---------------- Step  2170000 ----- CPU =    741.9502 (sec) ----------------
Time     = 10850000.000000 Temp     = 251.767509 Press    = 346.139031 
PotEng   = -10.331027 KinEng   = 0.749005 Lx       = 24.802044 
Ly       = 24.802044 Lz       = 24.802044 Density  = 1.003918 
Volume   = 15256.762972 
---------------- Step  2180000 ----- CPU =    748.3371 (sec) ----------------
Time     = 10900000.000000 Temp     = 254.719421 Press    = -488.532414 
PotEng   = -10.358791 KinEng   = 0.757787 Lx       = 24.795664 
Ly       = 24.795664 Lz       = 24.795664 Density  = 1.004693 
Volume   = 15244.993481 
---------------- Step  2190000 ----- CPU =    754.5949 (sec) ----------------
Time     = 10950000.000000 Temp     = 246.546580 Press    = 167.628012 
PotEng   = -10.335423 KinEng   = 0.733473 Lx       = 24.729253 
Ly       = 24.729253 Lz       = 24.729253 Density  = 1.012809 
Volume   = 15122.827038 
---------------- Step  2200000 ----- CPU =    761.0343 (sec) ----------------
Time     = 11000000.000000 Temp     = 249.472761 Press    = -906.390899 
PotEng   = -10.335958 KinEng   = 0.742179 Lx       = 24.763371 
Ly       = 24.763371 Lz       = 24.763371 Density  = 1.008628 
Volume   = 15185.507525 
---------------- Step  2210000 ----- CPU =    767.3401 (sec) ----------------
Time     = 11050000.000000 Temp     = 231.196283 Press    = -487.250244 
PotEng   = -10.340800 KinEng   = 0.687806 Lx       = 24.798530 
Ly       = 24.798530 Lz       = 24.798530 Density  = 1.004345 
Volume   = 15250.279774 
---------------- Step  2220000 ----- CPU =    773.6530 (sec) ----------------
Time     = 11100000.000000 Temp     = 243.730750 Press    = -15.138567 
PotEng   = -10.362197 KinEng   = 0.725096 Lx       = 24.778174 
Ly       = 24.778174 Lz       = 24.778174 Density  = 1.006822 
Volume   = 15212.756194 
---------------- Step  2230000 ----- CPU =    779.9853 (sec) ----------------
Time     = 11150000.000000 Temp     = 259.468033 Press    = -96.920982 
PotEng   = -10.336428 KinEng   = 0.771914 Lx       = 24.767069 
Ly       = 24.767069 Lz       = 24.767069 Density  = 1.008177 
Volume   = 15192.311613 
---------------- Step  2240000 ----- CPU =    786.3774 (sec) ----------------
Time     = 11200000.000000 Temp     = 259.645963 Press    = 229.717798 
PotEng   = -10.349962 KinEng   = 0.772444 Lx       = 24.715815 
Ly       = 24.715815 Lz       = 24.715815 Density  = 1.014462 
Volume   = 15098.186408 
---------------- Step  2250000 ----- CPU =    792.6840 (sec) ----------------
Time     = 11250000.000000 Temp     = 247.792396 Press    = 984.242351 
PotEng   = -10.384077 KinEng   = 0.737179 Lx       = 24.789040 
Ly       = 24.789040 Lz       = 24.789040 Density  = 1.005498 
Volume   = 15232.778074 
---------------- Step  2260000 ----- CPU =    798.9908 (sec) ----------------
Time     = 11300000.000000 Temp     = 270.214577 Press    = -316.241638 
PotEng   = -10.307875 KinEng   = 0.803885 Lx       = 24.781729 
Ly       = 24.781729 Lz       = 24.781729 Density  = 1.006389 
Volume   = 15219.304090 
---------------- Step  2270000 ----- CPU =    805.3527 (sec) ----------------
Time     = 11350000.000000 Temp     = 262.393715 Press    = -668.877333 
PotEng   = -10.378011 KinEng   = 0.780618 Lx       = 24.886795 
Ly       = 24.886795 Lz       = 24.886795 Density  = 0.993696 
Volume   = 15413.699750 
---------------- Step  2280000 ----- CPU =    811.6863 (sec) ----------------
Time     = 11400000.000000 Temp     = 241.328168 Press    = 481.533871 
PotEng   = -10.358708 KinEng   = 0.717948 Lx       = 24.762362 
Ly       = 24.762362 Lz       = 24.762362 Density  = 1.008752 
Volume   = 15183.650338 
---------------- Step  2290000 ----- CPU =    818.0362 (sec) ----------------
Time     = 11450000.000000 Temp     = 264.326428 Press    = 453.375759 
PotEng   = -10.339953 KinEng   = 0.786368 Lx       = 24.781160 
Ly       = 24.781160 Lz       = 24.781160 Density  = 1.006458 
Volume   = 15218.255968 
---------------- Step  2300000 ----- CPU =    824.3421 (sec) ----------------
Time     = 11500000.000000 Temp     = 238.436184 Press    = 35.836426 
PotEng   = -10.380998 KinEng   = 0.709345 Lx       = 24.899809 
Ly       = 24.899809 Lz       = 24.899809 Density  = 0.992139 
Volume   = 15437.894075 
---------------- Step  2310000 ----- CPU =    830.7188 (sec) ----------------
Time     = 11550000.000000 Temp     = 258.609644 Press    = -781.848745 
PotEng   = -10.348817 KinEng   = 0.769361 Lx       = 24.799493 
Ly       = 24.799493 Lz       = 24.799493 Density  = 1.004228 
Volume   = 15252.056504 
---------------- Step  2320000 ----- CPU =    837.0817 (sec) ----------------
Time     = 11600000.000000 Temp     = 255.394008 Press    = -74.748956 
PotEng   = -10.343636 KinEng   = 0.759794 Lx       = 24.762186 
Ly       = 24.762186 Lz       = 24.762186 Density  = 1.008773 
Volume   = 15183.327469 
---------------- Step  2330000 ----- CPU =    843.4135 (sec) ----------------
Time     = 11650000.000000 Temp     = 252.653047 Press    = -291.907780 
PotEng   = -10.364040 KinEng   = 0.751640 Lx       = 24.856445 
Ly       = 24.856445 Lz       = 24.856445 Density  = 0.997341 
Volume   = 15357.377563 
---------------- Step  2340000 ----- CPU =    849.7532 (sec) ----------------
Time     = 11700000.000000 Temp     = 252.228080 Press    = -454.388370 
PotEng   = -10.329381 KinEng   = 0.750376 Lx       = 24.862502 
Ly       = 24.862502 Lz       = 24.862502 Density  = 0.996612 
Volume   = 15368.606315 
---------------- Step  2350000 ----- CPU =    856.1124 (sec) ----------------
Time     = 11750000.000000 Temp     = 266.650197 Press    = 191.241634 
PotEng   = -10.313260 KinEng   = 0.793281 Lx       = 24.828242 
Ly       = 24.828242 Lz       = 24.828242 Density  = 1.000743 
Volume   = 15305.161150 
---------------- Step  2360000 ----- CPU =    862.4146 (sec) ----------------
Time     = 11800000.000000 Temp     = 259.236504 Press    = 260.160425 
PotEng   = -10.331189 KinEng   = 0.771226 Lx       = 24.775924 
Ly       = 24.775924 Lz       = 24.775924 Density  = 1.007096 
Volume   = 15208.611809 
---------------- Step  2370000 ----- CPU =    868.7643 (sec) ----------------
Time     = 11850000.000000 Temp     = 240.706643 Press    = -435.646514 
PotEng   = -10.306595 KinEng   = 0.716099 Lx       = 24.843024 
Ly       = 24.843024 Lz       = 24.843024 Density  = 0.998958 
Volume   = 15332.515115 
---------------- Step  2380000 ----- CPU =    875.1189 (sec) ----------------
Time     = 11900000.000000 Temp     = 237.180113 Press    = 464.182349 
PotEng   = -10.368291 KinEng   = 0.705608 Lx       = 24.801180 
Ly       = 24.801180 Lz       = 24.801180 Density  = 1.004023 
Volume   = 15255.169482 
---------------- Step  2390000 ----- CPU =    881.5035 (sec) ----------------
Time     = 11950000.000000 Temp     = 251.571208 Press    = 1094.625175 
PotEng   = -10.357038 KinEng   = 0.748421 Lx       = 24.736535 
Ly       = 24.736535 Lz       = 24.736535 Density  = 1.011915 
Volume   = 15136.190682 
---------------- Step  2400000 ----- CPU =    887.8151 (sec) ----------------
Time     = 12000000.000000 Temp     = 235.987566 Press    = 185.077326 
PotEng   = -10.364721 KinEng   = 0.702060 Lx       = 24.799685 
Ly       = 24.799685 Lz       = 24.799685 Density  = 1.004204 
Volume   = 15252.411699 
---------------- Step  2410000 ----- CPU =    894.1226 (sec) ----------------
Time     = 12050000.000000 Temp     = 240.310727 Press    = -224.910807 
PotEng   = -10.364552 KinEng   = 0.714922 Lx       = 24.787214 
Ly       = 24.787214 Lz       = 24.787214 Density  = 1.005721 
Volume   = 15229.411622 
---------------- Step  2420000 ----- CPU =    900.4747 (sec) ----------------
Time     = 12100000.000000 Temp     = 248.571315 Press    = -343.303668 
PotEng   = -10.354062 KinEng   = 0.739497 Lx       = 24.757985 
Ly       = 24.757985 Lz       = 24.757985 Density  = 1.009287 
Volume   = 15175.600637 
---------------- Step  2430000 ----- CPU =    906.8356 (sec) ----------------
Time     = 12150000.000000 Temp     = 251.279457 Press    = -313.990922 
PotEng   = -10.310410 KinEng   = 0.747553 Lx       = 24.869228 
Ly       = 24.869228 Lz       = 24.869228 Density  = 0.995803 
Volume   = 15381.082853 
---------------- Step  2440000 ----- CPU =    913.1185 (sec) ----------------
Time     = 12200000.000000 Temp     = 241.998108 Press    = -270.356344 
PotEng   = -10.327991 KinEng   = 0.719942 Lx       = 24.805579 
Ly       = 24.805579 Lz       = 24.805579 Density  = 1.003489 
Volume   = 15263.287620 
---------------- Step  2450000 ----- CPU =    919.4835 (sec) ----------------
Time     = 12250000.000000 Temp     = 244.947135 Press    = -1039.025514 
PotEng   = -10.300141 KinEng   = 0.728715 Lx       = 24.916930 
Ly       = 24.916930 Lz       = 24.916930 Density  = 0.990095 
Volume   = 15469.759811 
---------------- Step  2460000 ----- CPU =    925.7768 (sec) ----------------
Time     = 12300000.000000 Temp     = 253.240048 Press    = -562.891895 
PotEng   = -10.355154 KinEng   = 0.753386 Lx       = 24.876013 
Ly       = 24.876013 Lz       = 24.876013 Density  = 0.994989 
Volume   = 15393.674670 
---------------- Step  2470000 ----- CPU =    932.1231 (sec) ----------------
Time     = 12350000.000000 Temp     = 248.208161 Press    = -115.333116 
PotEng   = -10.356531 KinEng   = 0.738416 Lx       = 24.763311 
Ly       = 24.763311 Lz       = 24.763311 Density  = 1.008636 
Volume   = 15185.396350 
---------------- Step  2480000 ----- CPU =    938.5041 (sec) ----------------
Time     = 12400000.000000 Temp     = 242.835155 Press    = -6.987444 
PotEng   = -10.322947 KinEng   = 0.722432 Lx       = 24.700254 
Ly       = 24.700254 Lz       = 24.700254 Density  = 1.016380 
Volume   = 15069.687975 
---------------- Step  2490000 ----- CPU =    944.9468 (sec) ----------------
Time     = 12450000.000000 Temp     = 254.986741 Press    = 134.388646 
PotEng   = -10.254814 KinEng   = 0.758583 Lx       = 24.823304 
Ly       = 24.823304 Lz       = 24.823304 Density  = 1.001340 
Volume   = 15296.030521 
---------------- Step  2500000 ----- CPU =    951.3085 (sec) ----------------
Time     = 12500000.000000 Temp     = 258.074681 Press    = -15.876441 
PotEng   = -10.346880 KinEng   = 0.767769 Lx       = 24.815853 
Ly       = 24.815853 Lz       = 24.815853 Density  = 1.002243 
Volume   = 15282.260928 
---------------- Step  2510000 ----- CPU =    957.6682 (sec) ----------------
Time     = 12550000.000000 Temp     = 241.205653 Press    = 211.616368 
PotEng   = -10.357171 KinEng   = 0.717584 Lx       = 24.790052 
Ly       = 24.790052 Lz       = 24.790052 Density  = 1.005375 
Volume   = 15234.644087 
---------------- Step  2520000 ----- CPU =    964.0485 (sec) ----------------
Time     = 12600000.000000 Temp     = 247.525658 Press    = 296.740186 
PotEng   = -10.354588 KinEng   = 0.736386 Lx       = 24.778288 
Ly       = 24.778288 Lz       = 24.778288 Density  = 1.006808 
Volume   = 15212.966261 
---------------- Step  2530000 ----- CPU =    970.3620 (sec) ----------------
Time     = 12650000.000000 Temp     = 248.206494 Press    = -599.549534 
PotEng   = -10.363602 KinEng   = 0.738411 Lx       = 24.879310 
Ly       = 24.879310 Lz       = 24.879310 Density  = 0.994593 
Volume   = 15399.796255 
---------------- Step  2540000 ----- CPU =    976.6862 (sec) ----------------
Time     = 12700000.000000 Temp     = 243.588396 Press    = 371.106250 
PotEng   = -10.311599 KinEng   = 0.724673 Lx       = 24.798961 
Ly       = 24.798961 Lz       = 24.798961 Density  = 1.004292 
Volume   = 15251.074254 
---------------- Step  2550000 ----- CPU =    983.0534 (sec) ----------------
Time     = 12750000.000000 Temp     = 242.027567 Press    = 1150.398400 
PotEng   = -10.315847 KinEng   = 0.720029 Lx       = 24.658035 
Ly       = 24.658035 Lz       = 24.658035 Density  = 1.021610 
Volume   = 14992.545809 
---------------- Step  2560000 ----- CPU =    989.4610 (sec) ----------------
Time     = 12800000.000000 Temp     = 256.733575 Press    = 32.188438 
PotEng   = -10.345356 KinEng   = 0.763779 Lx       = 24.870710 
Ly       = 24.870710 Lz       = 24.870710 Density  = 0.995625 
Volume   = 15383.832187 
---------------- Step  2570000 ----- CPU =    995.8284 (sec) ----------------
Time     = 12850000.000000 Temp     = 259.499731 Press    = 844.064670 
[...]
Ly       = 24.805962 Lz       = 24.805962 Density  = 1.003442 
Volume   = 15263.996014 
---------------- Step  4390000 ----- CPU =   2059.6949 (sec) ----------------
Time     = 21950000.000000 Temp     = 245.488619 Press    = 219.733467 
PotEng   = -10.355921 KinEng   = 0.730326 Lx       = 24.766538 
Ly       = 24.766538 Lz       = 24.766538 Density  = 1.008242 
Volume   = 15191.333432 
---------------- Step  4400000 ----- CPU =   2065.3054 (sec) ----------------
Time     = 22000000.000000 Temp     = 247.386653 Press    = -75.392888 
PotEng   = -10.312577 KinEng   = 0.735972 Lx       = 24.854383 
Ly       = 24.854383 Lz       = 24.854383 Density  = 0.997589 
Volume   = 15353.554751 
---------------- Step  4410000 ----- CPU =   2070.9495 (sec) ----------------
Time     = 22050000.000000 Temp     = 257.872368 Press    = -1012.566181 
PotEng   = -10.422343 KinEng   = 0.767167 Lx       = 24.774618 
Ly       = 24.774618 Lz       = 24.774618 Density  = 1.007255 
Volume   = 15206.206381 
---------------- Step  4420000 ----- CPU =   2076.5756 (sec) ----------------
Time     = 22100000.000000 Temp     = 244.202843 Press    = 75.814385 
PotEng   = -10.276485 KinEng   = 0.726501 Lx       = 24.812241 
Ly       = 24.812241 Lz       = 24.812241 Density  = 1.002680 
Volume   = 15275.589130 
---------------- Step  4430000 ----- CPU =   2082.1984 (sec) ----------------
Time     = 22150000.000000 Temp     = 243.502049 Press    = 1090.830123 
PotEng   = -10.389271 KinEng   = 0.724416 Lx       = 24.759258 
Ly       = 24.759258 Lz       = 24.759258 Density  = 1.009131 
Volume   = 15177.941931 
---------------- Step  4440000 ----- CPU =   2087.8997 (sec) ----------------
Time     = 22200000.000000 Temp     = 248.029265 Press    = 351.375225 
PotEng   = -10.436641 KinEng   = 0.737884 Lx       = 24.851171 
Ly       = 24.851171 Lz       = 24.851171 Density  = 0.997976 
Volume   = 15347.603842 
---------------- Step  4450000 ----- CPU =   2093.5153 (sec) ----------------
Time     = 22250000.000000 Temp     = 244.188240 Press    = -895.967528 
PotEng   = -10.363707 KinEng   = 0.726457 Lx       = 24.847439 
Ly       = 24.847439 Lz       = 24.847439 Density  = 0.998425 
Volume   = 15340.691072 
---------------- Step  4460000 ----- CPU =   2099.1773 (sec) ----------------
Time     = 22300000.000000 Temp     = 259.028149 Press    = 248.130317 
PotEng   = -10.393874 KinEng   = 0.770606 Lx       = 24.732298 
Ly       = 24.732298 Lz       = 24.732298 Density  = 1.012435 
Volume   = 15128.414141 
---------------- Step  4470000 ----- CPU =   2104.8650 (sec) ----------------
Time     = 22350000.000000 Temp     = 247.252989 Press    = 501.287870 
PotEng   = -10.303848 KinEng   = 0.735575 Lx       = 24.760212 
Ly       = 24.760212 Lz       = 24.760212 Density  = 1.009015 
Volume   = 15179.696332 
---------------- Step  4480000 ----- CPU =   2110.5356 (sec) ----------------
Time     = 22400000.000000 Temp     = 243.966534 Press    = -3.353985 
PotEng   = -10.328873 KinEng   = 0.725798 Lx       = 24.777288 
Ly       = 24.777288 Lz       = 24.777288 Density  = 1.006930 
Volume   = 15211.123445 
---------------- Step  4490000 ----- CPU =   2116.1746 (sec) ----------------
Time     = 22450000.000000 Temp     = 243.084997 Press    = -506.044340 
PotEng   = -10.394347 KinEng   = 0.723175 Lx       = 24.824686 
Ly       = 24.824686 Lz       = 24.824686 Density  = 1.001173 
Volume   = 15298.585538 
---------------- Step  4500000 ----- CPU =   2121.8110 (sec) ----------------
Time     = 22500000.000000 Temp     = 251.827581 Press    = 725.487705 
PotEng   = -10.381658 KinEng   = 0.749184 Lx       = 24.853507 
Ly       = 24.853507 Lz       = 24.853507 Density  = 0.997694 
Volume   = 15351.931980 
---------------- Step  4510000 ----- CPU =   2127.4551 (sec) ----------------
Time     = 22550000.000000 Temp     = 262.952753 Press    = 87.562588 
PotEng   = -10.397479 KinEng   = 0.782281 Lx       = 24.844808 
Ly       = 24.844808 Lz       = 24.844808 Density  = 0.998743 
Volume   = 15335.817796 
---------------- Step  4520000 ----- CPU =   2133.0878 (sec) ----------------
Time     = 22600000.000000 Temp     = 247.916691 Press    = 504.024935 
PotEng   = -10.326753 KinEng   = 0.737549 Lx       = 24.773471 
Ly       = 24.773471 Lz       = 24.773471 Density  = 1.007395 
Volume   = 15204.095092 
---------------- Step  4530000 ----- CPU =   2138.6895 (sec) ----------------
Time     = 22650000.000000 Temp     = 254.153414 Press    = -460.087172 
PotEng   = -10.332869 KinEng   = 0.756103 Lx       = 24.847615 
Ly       = 24.847615 Lz       = 24.847615 Density  = 0.998404 
Volume   = 15341.016824 
---------------- Step  4540000 ----- CPU =   2144.3468 (sec) ----------------
Time     = 22700000.000000 Temp     = 257.492250 Press    = -52.317743 
PotEng   = -10.383533 KinEng   = 0.766036 Lx       = 24.826232 
Ly       = 24.826232 Lz       = 24.826232 Density  = 1.000986 
Volume   = 15301.444048 
---------------- Step  4550000 ----- CPU =   2150.4937 (sec) ----------------
Time     = 22750000.000000 Temp     = 240.962977 Press    = -187.799162 
PotEng   = -10.282891 KinEng   = 0.716862 Lx       = 24.782553 
Ly       = 24.782553 Lz       = 24.782553 Density  = 1.006288 
Volume   = 15220.823312 
---------------- Step  4560000 ----- CPU =   2156.7067 (sec) ----------------
Time     = 22800000.000000 Temp     = 257.674623 Press    = -268.802172 
PotEng   = -10.316998 KinEng   = 0.766579 Lx       = 24.764132 
Ly       = 24.764132 Lz       = 24.764132 Density  = 1.008536 
Volume   = 15186.906397 
---------------- Step  4570000 ----- CPU =   2162.7893 (sec) ----------------
Time     = 22850000.000000 Temp     = 244.569777 Press    = 527.749673 
PotEng   = -10.369371 KinEng   = 0.727592 Lx       = 24.808249 
Ly       = 24.808249 Lz       = 24.808249 Density  = 1.003165 
Volume   = 15268.217262 
---------------- Step  4580000 ----- CPU =   2168.9362 (sec) ----------------
Time     = 22900000.000000 Temp     = 253.224750 Press    = 173.255263 
PotEng   = -10.322737 KinEng   = 0.753341 Lx       = 24.781769 
Ly       = 24.781769 Lz       = 24.781769 Density  = 1.006384 
Volume   = 15219.379042 
---------------- Step  4590000 ----- CPU =   2175.1633 (sec) ----------------
Time     = 22950000.000000 Temp     = 253.094273 Press    = -1399.406823 
PotEng   = -10.359695 KinEng   = 0.752952 Lx       = 24.895250 
Ly       = 24.895250 Lz       = 24.895250 Density  = 0.992684 
Volume   = 15429.416084 
---------------- Step  4600000 ----- CPU =   2180.8456 (sec) ----------------
Time     = 23000000.000000 Temp     = 261.917633 Press    = -239.793833 
PotEng   = -10.321636 KinEng   = 0.779202 Lx       = 24.834369 
Ly       = 24.834369 Lz       = 24.834369 Density  = 1.000003 
Volume   = 15316.494013 
---------------- Step  4610000 ----- CPU =   2186.5076 (sec) ----------------
Time     = 23050000.000000 Temp     = 260.172622 Press    = 877.868791 
PotEng   = -10.342915 KinEng   = 0.774010 Lx       = 24.767192 
Ly       = 24.767192 Lz       = 24.767192 Density  = 1.008162 
Volume   = 15192.536807 
---------------- Step  4620000 ----- CPU =   2192.1574 (sec) ----------------
Time     = 23100000.000000 Temp     = 257.026471 Press    = 800.003119 
PotEng   = -10.392197 KinEng   = 0.764651 Lx       = 24.695829 
Ly       = 24.695829 Lz       = 24.695829 Density  = 1.016927 
Volume   = 15061.590710 
---------------- Step  4630000 ----- CPU =   2197.7693 (sec) ----------------
Time     = 23150000.000000 Temp     = 269.097524 Press    = 497.289029 
PotEng   = -10.324605 KinEng   = 0.800562 Lx       = 24.807660 
Ly       = 24.807660 Lz       = 24.807660 Density  = 1.003236 
Volume   = 15267.130310 
---------------- Step  4640000 ----- CPU =   2203.5410 (sec) ----------------
Time     = 23200000.000000 Temp     = 245.462111 Press    = 259.167195 
PotEng   = -10.323899 KinEng   = 0.730247 Lx       = 24.763735 
Ly       = 24.763735 Lz       = 24.763735 Density  = 1.008584 
Volume   = 15186.176819 
---------------- Step  4650000 ----- CPU =   2209.7710 (sec) ----------------
Time     = 23250000.000000 Temp     = 245.265049 Press    = 467.193836 
PotEng   = -10.372788 KinEng   = 0.729661 Lx       = 24.800793 
Ly       = 24.800793 Lz       = 24.800793 Density  = 1.004070 
Volume   = 15254.454333 
---------------- Step  4660000 ----- CPU =   2216.0087 (sec) ----------------
Time     = 23300000.000000 Temp     = 252.660963 Press    = 850.072024 
PotEng   = -10.331259 KinEng   = 0.751663 Lx       = 24.779461 
Ly       = 24.779461 Lz       = 24.779461 Density  = 1.006665 
Volume   = 15215.126687 
---------------- Step  4670000 ----- CPU =   2222.1774 (sec) ----------------
Time     = 23350000.000000 Temp     = 258.985351 Press    = 113.970343 
PotEng   = -10.358028 KinEng   = 0.770478 Lx       = 24.797594 
Ly       = 24.797594 Lz       = 24.797594 Density  = 1.004458 
Volume   = 15248.552890 
---------------- Step  4680000 ----- CPU =   2228.3107 (sec) ----------------
Time     = 23400000.000000 Temp     = 257.993797 Press    = -213.272345 
PotEng   = -10.385335 KinEng   = 0.767528 Lx       = 24.778886 
Ly       = 24.778886 Lz       = 24.778886 Density  = 1.006735 
Volume   = 15214.066385 
---------------- Step  4690000 ----- CPU =   2234.0135 (sec) ----------------
Time     = 23450000.000000 Temp     = 252.245563 Press    = 791.131387 
PotEng   = -10.357376 KinEng   = 0.750428 Lx       = 24.710884 
Ly       = 24.710884 Lz       = 24.710884 Density  = 1.015069 
Volume   = 15089.151765 
---------------- Step  4700000 ----- CPU =   2239.6738 (sec) ----------------
Time     = 23500000.000000 Temp     = 261.194888 Press    = 125.174073 
PotEng   = -10.315650 KinEng   = 0.777052 Lx       = 24.766328 
Ly       = 24.766328 Lz       = 24.766328 Density  = 1.008267 
Volume   = 15190.947365 
---------------- Step  4710000 ----- CPU =   2245.4122 (sec) ----------------
Time     = 23550000.000000 Temp     = 229.975661 Press    = -583.041950 
PotEng   = -10.340473 KinEng   = 0.684175 Lx       = 24.797012 
Ly       = 24.797012 Lz       = 24.797012 Density  = 1.004529 
Volume   = 15247.479193 
---------------- Step  4720000 ----- CPU =   2251.0069 (sec) ----------------
Time     = 23600000.000000 Temp     = 249.305084 Press    = 168.111024 
PotEng   = -10.301235 KinEng   = 0.741680 Lx       = 24.833955 
Ly       = 24.833955 Lz       = 24.833955 Density  = 1.000053 
Volume   = 15315.729553 
---------------- Step  4730000 ----- CPU =   2256.7037 (sec) ----------------
Time     = 23650000.000000 Temp     = 272.961999 Press    = -673.506529 
PotEng   = -10.376102 KinEng   = 0.812059 Lx       = 24.822317 
Ly       = 24.822317 Lz       = 24.822317 Density  = 1.001460 
Volume   = 15294.206815 
---------------- Step  4740000 ----- CPU =   2262.3639 (sec) ----------------
Time     = 23700000.000000 Temp     = 252.653024 Press    = 1156.588635 
PotEng   = -10.398648 KinEng   = 0.751640 Lx       = 24.736372 
Ly       = 24.736372 Lz       = 24.736372 Density  = 1.011935 
Volume   = 15135.890981 
---------------- Step  4750000 ----- CPU =   2267.9639 (sec) ----------------
Time     = 23750000.000000 Temp     = 254.696347 Press    = 164.631115 
PotEng   = -10.341852 KinEng   = 0.757719 Lx       = 24.817560 
Ly       = 24.817560 Lz       = 24.817560 Density  = 1.002036 
Volume   = 15285.414561 
---------------- Step  4760000 ----- CPU =   2273.5710 (sec) ----------------
Time     = 23800000.000000 Temp     = 256.334463 Press    = -4.465054 
PotEng   = -10.389637 KinEng   = 0.762592 Lx       = 24.769037 
Ly       = 24.769037 Lz       = 24.769037 Density  = 1.007936 
Volume   = 15195.933085 
---------------- Step  4770000 ----- CPU =   2279.2004 (sec) ----------------
Time     = 23850000.000000 Temp     = 249.701305 Press    = 1195.224597 
PotEng   = -10.351446 KinEng   = 0.742858 Lx       = 24.742489 
Ly       = 24.742489 Lz       = 24.742489 Density  = 1.011184 
Volume   = 15147.123567 
---------------- Step  4780000 ----- CPU =   2284.8134 (sec) ----------------
Time     = 23900000.000000 Temp     = 257.795809 Press    = 326.301398 
PotEng   = -10.333251 KinEng   = 0.766939 Lx       = 24.763371 
Ly       = 24.763371 Lz       = 24.763371 Density  = 1.008629 
Volume   = 15185.506343 
---------------- Step  4790000 ----- CPU =   2290.4551 (sec) ----------------
Time     = 23950000.000000 Temp     = 243.875392 Press    = 729.588753 
PotEng   = -10.339587 KinEng   = 0.725526 Lx       = 24.813920 
Ly       = 24.813920 Lz       = 24.813920 Density  = 1.002477 
Volume   = 15278.690084 
---------------- Step  4800000 ----- CPU =   2296.1165 (sec) ----------------
Time     = 24000000.000000 Temp     = 242.809467 Press    = 234.720807 
PotEng   = -10.362851 KinEng   = 0.722355 Lx       = 24.778898 
Ly       = 24.778898 Lz       = 24.778898 Density  = 1.006734 
Volume   = 15214.089116 
---------------- Step  4810000 ----- CPU =   2301.7240 (sec) ----------------
Time     = 24050000.000000 Temp     = 241.410259 Press    = -566.945262 
PotEng   = -10.387064 KinEng   = 0.718193 Lx       = 24.885633 
Ly       = 24.885633 Lz       = 24.885633 Density  = 0.993835 
Volume   = 15411.541659 
---------------- Step  4820000 ----- CPU =   2307.3932 (sec) ----------------
Time     = 24100000.000000 Temp     = 249.097574 Press    = 924.075313 
PotEng   = -10.356840 KinEng   = 0.741062 Lx       = 24.748789 
Ly       = 24.748789 Lz       = 24.748789 Density  = 1.010412 
Volume   = 15158.696864 
---------------- Step  4830000 ----- CPU =   2313.0753 (sec) ----------------
Time     = 24150000.000000 Temp     = 266.626856 Press    = -921.971819 
PotEng   = -10.356250 KinEng   = 0.793212 Lx       = 24.826048 
Ly       = 24.826048 Lz       = 24.826048 Density  = 1.001008 
Volume   = 15301.103633 
---------------- Step  4840000 ----- CPU =   2318.7488 (sec) ----------------
Time     = 24200000.000000 Temp     = 243.596002 Press    = -41.791200 
PotEng   = -10.364801 KinEng   = 0.724695 Lx       = 24.837482 
Ly       = 24.837482 Lz       = 24.837482 Density  = 0.999627 
Volume   = 15322.254791 
---------------- Step  4850000 ----- CPU =   2324.4307 (sec) ----------------
Time     = 24250000.000000 Temp     = 260.043891 Press    = 399.907819 
PotEng   = -10.363624 KinEng   = 0.773627 Lx       = 24.756547 
Ly       = 24.756547 Lz       = 24.756547 Density  = 1.009463 
Volume   = 15172.956078 
---------------- Step  4860000 ----- CPU =   2330.0472 (sec) ----------------
Time     = 24300000.000000 Temp     = 247.229100 Press    = -940.039749 
PotEng   = -10.381267 KinEng   = 0.735504 Lx       = 24.843844 
Ly       = 24.843844 Lz       = 24.843844 Density  = 0.998859 
Volume   = 15334.032673 
---------------- Step  4870000 ----- CPU =   2335.6936 (sec) ----------------
Time     = 24350000.000000 Temp     = 242.525950 Press    = -105.747588 
PotEng   = -10.298253 KinEng   = 0.721512 Lx       = 24.759078 
Ly       = 24.759078 Lz       = 24.759078 Density  = 1.009153 
Volume   = 15177.610694 
---------------- Step  4880000 ----- CPU =   2341.3389 (sec) ----------------
Time     = 24400000.000000 Temp     = 255.255584 Press    = -944.043794 
PotEng   = -10.359427 KinEng   = 0.759382 Lx       = 24.870134 
Ly       = 24.870134 Lz       = 24.870134 Density  = 0.995695 
Volume   = 15382.763406 
---------------- Step  4890000 ----- CPU =   2347.0244 (sec) ----------------
Time     = 24450000.000000 Temp     = 241.133291 Press    = -44.611632 
PotEng   = -10.339217 KinEng   = 0.717369 Lx       = 24.749211 
Ly       = 24.749211 Lz       = 24.749211 Density  = 1.010361 
Volume   = 15159.471561 
---------------- Step  4900000 ----- CPU =   2352.6698 (sec) ----------------
Time     = 24500000.000000 Temp     = 241.817869 Press    = -14.534047 
PotEng   = -10.352610 KinEng   = 0.719405 Lx       = 24.713822 
Ly       = 24.713822 Lz       = 24.713822 Density  = 1.014707 
Volume   = 15094.534856 
---------------- Step  4910000 ----- CPU =   2358.1433 (sec) ----------------
Time     = 24550000.000000 Temp     = 242.431200 Press    = -193.904353 
PotEng   = -10.391433 KinEng   = 0.721230 Lx       = 24.696846 
Ly       = 24.696846 Lz       = 24.696846 Density  = 1.016801 
Volume   = 15063.451971 
---------------- Step  4920000 ----- CPU =   2363.5716 (sec) ----------------
Time     = 24600000.000000 Temp     = 251.974281 Press    = 149.588349 
PotEng   = -10.348787 KinEng   = 0.749621 Lx       = 24.837367 
Ly       = 24.837367 Lz       = 24.837367 Density  = 0.999641 
Volume   = 15322.042939 
---------------- Step  4930000 ----- CPU =   2368.9956 (sec) ----------------
Time     = 24650000.000000 Temp     = 245.241585 Press    = -764.517524 
PotEng   = -10.262976 KinEng   = 0.729591 Lx       = 24.882544 
Ly       = 24.882544 Lz       = 24.882544 Density  = 0.994205 
Volume   = 15405.803724 
---------------- Step  4940000 ----- CPU =   2374.3923 (sec) ----------------
Time     = 24700000.000000 Temp     = 254.222099 Press    = 492.179578 
PotEng   = -10.420992 KinEng   = 0.756308 Lx       = 24.797944 
Ly       = 24.797944 Lz       = 24.797944 Density  = 1.004416 
Volume   = 15249.198557 
---------------- Step  4950000 ----- CPU =   2379.8046 (sec) ----------------
Time     = 24750000.000000 Temp     = 261.517121 Press    = 683.187712 
PotEng   = -10.415014 KinEng   = 0.778010 Lx       = 24.781320 
Ly       = 24.781320 Lz       = 24.781320 Density  = 1.006438 
Volume   = 15218.551794 
---------------- Step  4960000 ----- CPU =   2385.2484 (sec) ----------------
Time     = 24800000.000000 Temp     = 255.449379 Press    = 243.207126 
PotEng   = -10.332268 KinEng   = 0.759959 Lx       = 24.785583 
Ly       = 24.785583 Lz       = 24.785583 Density  = 1.005919 
Volume   = 15226.405931 
---------------- Step  4970000 ----- CPU =   2390.8021 (sec) ----------------
Time     = 24850000.000000 Temp     = 236.865209 Press    = -432.077144 
PotEng   = -10.380962 KinEng   = 0.704671 Lx       = 24.910909 
Ly       = 24.910909 Lz       = 24.910909 Density  = 0.990813 
Volume   = 15458.548117 
---------------- Step  4980000 ----- CPU =   2396.2498 (sec) ----------------
Time     = 24900000.000000 Temp     = 246.101891 Press    = 832.577146 
PotEng   = -10.346668 KinEng   = 0.732150 Lx       = 24.723055 
Ly       = 24.723055 Lz       = 24.723055 Density  = 1.013571 
Volume   = 15111.459377 
---------------- Step  4990000 ----- CPU =   2401.7129 (sec) ----------------
Time     = 24950000.000000 Temp     = 243.495497 Press    = 407.231205 
PotEng   = -10.360861 KinEng   = 0.724396 Lx       = 24.819842 
Ly       = 24.819842 Lz       = 24.819842 Density  = 1.001760 
Volume   = 15289.632135 
---------------- Step  5000000 ----- CPU =   2407.1500 (sec) ----------------
Time     = 25000000.000000 Temp     = 259.960896 Press    = 176.967418 
PotEng   = -10.333084 KinEng   = 0.773381 Lx       = 24.898177 
Ly       = 24.898177 Lz       = 24.898177 Density  = 0.992334 
Volume   = 15434.858268 
Loop time of 2407.15 on 6 procs for 4000000 steps with 512 atoms

Performance: 717.861 ns/day, 0.033 hours/ns, 1661.716 timesteps/s
97.0% CPU use with 6 MPI tasks x no OpenMP threads

MPI task timing breakdown:
Section |  min time  |  avg time  |  max time  |%varavg| %total
---------------------------------------------------------------
Pair    | 2013.6     | 2026       | 2049.5     |  27.4 | 84.17
Neigh   | 55.393     | 55.6       | 55.78      |   2.0 |  2.31
Comm    | 248.66     | 272.08     | 285.1      |  76.2 | 11.30
Output  | 0.0096838  | 0.016859   | 0.051498   |  11.9 |  0.00
Modify  | 42.794     | 43.823     | 44.979     |  10.3 |  1.82
Other   |            | 9.599      |            |       |  0.40

Nlocal:    85.3333 ave 89 max 81 min
Histogram: 1 1 0 1 0 0 0 0 2 1
Nghost:    565.833 ave 572 max 560 min
Histogram: 1 1 0 1 0 1 0 0 0 2
Neighs:    0 ave 0 max 0 min
Histogram: 6 0 0 0 0 0 0 0 0 0
FullNghs:  2820.33 ave 2965 max 2697 min
Histogram: 3 0 0 0 0 0 0 1 1 1

Total # of neighbors = 16922
Ave neighs/atom = 33.0508
Neighbor list builds = 233815
Dangerous builds = 0
System init for write_data ...
Total wall time: 0:50:41
