LAMMPS data file via write_data, version 4 Jan 2019, timestep = 5000000

512 atoms
1 atom types

7.6504705035182141e-02 2.4758495294958166e+01 xlo xhi
7.6504705035182141e-02 2.4758495294958166e+01 ylo yhi
7.6504705035182141e-02 2.4758495294958166e+01 zlo zhi

Masses

1 18.0153

Atoms # atomic

222 1 5.4251430648285404e-01 9.1130176254043616e-01 7.7993682682253529e-01 24 55 51
44 1 2.4153637089933412e+01 8.4083484640792427e+00 6.4926364387836646e+00 -32 -36 104
58 1 1.1547872089229900e+00 1.1050201312867591e+01 4.2763554638115240e+00 -14 -25 -2
307 1 3.8083939469347143e+00 9.7394682175371248e+00 9.9566409606668849e-01 -51 92 0
501 1 2.0792648072560382e+01 5.6183286507468724e+00 5.8707630102212178e+00 35 -19 -3
12 1 6.3090609874980152e-01 2.8330109694577446e+00 4.1226094950968646e+00 65 -45 61
55 1 2.3250180986373337e+01 5.8041082427454036e+00 6.9999802083742395e+00 20 64 -19
431 1 1.7581691435355074e+00 6.9667113772361207e+00 2.4674704687687217e+00 -66 -39 -28
125 1 2.3200910693777868e+00 4.4690655411381650e+00 6.3671666499195849e+00 -42 -58 -12
25 1 5.4056462784362127e+00 1.1192886617827240e+01 4.3244862641441637e+00 66 -70 -51
190 1 1.7283389303089898e+01 2.1210657970486371e+00 4.9529759484106766e+00 92 97 22
362 1 9.1407459771299138e+00 8.9414253407530264e+00 6.1781949591719485e+00 -51 -12 -59
494 1 1.0919360790257858e+01 4.5426138486609187e+00 7.6929435605394145e+00 -10 49 -79
32 1 1.0331855602711338e+01 4.4277620146207530e+00 1.7773106198071658e+00 -59 114 -41
140 1 2.3186109203505126e+01 1.2277662268262286e+01 4.2916180581187886e+00 -63 31 -2
377 1 6.8109410865189384e+00 3.2888071551839566e+00 3.3298571341036431e-01 14 12 -115
455 1 6.7780607589886612e+00 3.2603090180086634e+00 4.6185040880862838e+00 51 102 14
199 1 1.8682396672864634e+01 7.3099478503163260e+00 1.6661213160611041e+00 16 68 -29
139 1 9.2645258912881054e+00 1.0406516295388473e+01 3.8477560523187111e+00 -20 -8 -16
219 1 3.9064180306267549e+00 3.0386942406332360e+00 4.0620601652235209e+00 -32 -7 -99
162 1 8.3962174539592898e+00 2.5720030225839272e+00 2.5299288934902400e+00 -40 6 0
435 1 6.1746418653306003e+00 7.0933950368092606e+00 2.0456967799877672e+00 -47 -4 -23
224 1 1.8219482418291641e+01 1.1361688282920069e+01 6.5453951639316155e-01 61 -86 -3
364 1 1.7859023288553196e+01 1.1063879080349292e+01 4.4035101011220155e+00 108 5 -19
504 1 1.4001814213924664e+01 9.5116413119786873e+00 4.9422489297747472e+00 -39 -12 40
195 1 3.0633617560317004e+00 6.5923219424164152e+00 4.9329420009951166e+00 -10 -11 81
204 1 2.2312313831190260e+00 8.9666165549766674e+00 5.7371121540986776e+00 20 -21 -187
232 1 1.3992627580332362e+01 4.9678692553876864e+00 5.1442007895863577e+00 83 35 27
60 1 2.4610980253841269e+01 9.1328513280262840e+00 2.7570337843629193e+00 -67 -25 65
138 1 1.3665962450340679e+01 3.9062275505594388e+00 1.1355981482292259e+00 187 41 21
265 1 2.0873893778877090e+01 7.0641365394681834e+00 3.2596873250862841e+00 -76 -53 70
8 1 1.2318462582228880e+01 7.4411747801303312e+00 1.9350394131518454e+00 -17 26 -26
288 1 6.9871633156818538e+00 9.8448535892843925e+00 2.4818359593475989e+00 -60 -29 -83
1 1 2.0077180251119614e+01 1.0834561847084698e-01 6.4459510887272575e+00 -61 -39 65
353 1 6.8886837478279199e+00 6.3309544420754822e+00 6.6297451781498316e+00 -172 69 93
216 1 1.3154464743428576e+01 8.2913846286122239e-01 3.6724794699793337e+00 -30 5 162
214 1 2.2513965575880377e+01 1.0582019157096441e+00 5.1940000535514468e+00 16 108 -1
337 1 5.6350746881497544e+00 6.1318814318033183e+00 4.4865964119629744e+00 24 13 -51
189 1 1.1958890852540193e+01 9.9560264744648279e+00 3.0857868748323081e+00 118 -52 -32
40 1 8.9990205769228222e+00 6.6087673209490232e+00 7.0544689623976864e-01 -6 41 55
357 1 3.2735757658447997e+00 1.1530362172730651e+01 2.8470795256883465e+00 14 -2 -11
42 1 6.3708991608343277e+00 9.5594055634249404e+00 6.6011751005230916e+00 12 76 -69
46 1 1.0012648112224765e+01 2.1654402489775566e+00 7.0251010404777752e+00 39 -18 67
211 1 1.4796676460754677e+01 3.0916263119431271e+00 3.4702244694030040e+00 -41 13 -20
149 1 4.2738805383056429e+00 4.1576268671337866e+00 1.5107322543869584e+00 -56 50 -5
414 1 1.2360411343236855e+01 8.0800250811796772e+00 6.8085885455601165e+00 102 15 55
16 1 2.2103569378129521e+01 9.4330276335312835e+00 4.4632545357369908e+00 141 98 13
79 1 1.9758454936895269e+01 9.4772374022199877e+00 5.8754351019556150e+00 2 -93 100
19 1 1.6391459027937834e+01 6.6341082938649665e+00 4.9628818874840812e+00 21 51 82
421 1 2.1267813646378059e+01 2.6070263010012211e+00 2.9881001848138187e+00 13 12 78
167 1 2.4267174784867443e+01 3.2419207560744217e+00 6.8706150529507930e+00 20 -18 2
144 1 1.9363690042140611e+01 5.2392204091555294e-01 2.4062431317249517e+00 -23 32 39
422 1 9.8244261691600361e+00 2.6666729299219050e-01 2.1966547405152013e+00 -2 66 67
419 1 1.5038808894672513e+01 6.9304476461092239e+00 1.2130134583397947e+00 37 15 13
186 1 7.2450616462755040e+00 1.7944218170387198e+00 7.0395500042871602e+00 -24 174 45
451 1 1.7416476124809400e+01 2.1640976004228638e+00 7.7252210895470483e+00 78 37 -17
404 1 9.7954067823798479e+00 5.9311130185405840e+00 5.8816590336695951e+00 -20 138 45
36 1 3.4077434804800415e+00 1.3978906968287261e+00 7.5658108615154633e+00 107 69 116
84 1 1.6143836084695941e+01 9.1181236013968938e+00 3.5570353346758652e+00 32 57 37
320 1 1.9170338206232188e+01 3.7870092149544714e+00 4.0327506068386283e+00 18 90 34
22 1 3.7085111053650230e+00 6.5956620190059034e+00 8.1085900556613744e-01 8 -77 74
426 1 1.3950638468953301e+01 1.2146068135518213e+01 5.9278361700167412e+00 87 -16 67
238 1 1.3582899435257998e+01 3.9415491066404931e+00 7.5522814957763682e+00 50 16 -20
134 1 1.1653059822480925e+01 5.7182175950010441e+00 3.9891740505210782e+00 -76 -16 22
355 1 2.2324320283138988e+01 5.1799277035007742e+00 1.7165285836366186e+00 -33 -12 63
231 1 1.7271021275696953e+01 5.2427492981156743e+00 2.4999166903729728e+00 -39 15 33
163 1 2.4487281671857673e+01 1.0430203060256794e+01 2.2586333595091176e-01 -33 -59 6
286 1 1.6193324582054771e+01 9.7716995454958759e+00 1.0721475903961968e+00 43 -27 16
309 1 3.2031369365603596e-01 4.5820690525520869e+00 2.1288790346253323e+00 59 57 -50
179 1 1.8850342439324677e+01 6.9254776536266540e+00 7.2550667895713508e+00 -75 -83 -39
93 1 1.5311507332457781e+01 7.8045939326885341e+00 7.5167574622475923e+00 -43 -11 19
161 1 2.0415508641317011e+01 1.0395395531124445e+01 1.8546042490057042e+00 33 -35 38
505 1 2.0756031221308923e+01 2.9392800104102319e+00 7.1485591394137362e+00 -9 26 -46
4 1 1.0883967120891178e+01 3.3358823593807196e-01 4.9874861449916841e+00 23 -82 14
394 1 1.1579856038016585e+01 2.1179880831952382e+00 2.0221669891194705e-01 -112 -11 -30
27 1 1.7007159317412267e+01 2.0930609200409993e+00 1.1129381517510926e+00 22 -27 69
256 1 1.2698367580091370e+00 1.1231167395363154e-01 3.5309511712114894e+00 33 19 -33
75 1 1.2004779509853114e+01 1.1489037521378872e+01 6.0622299049455142e-01 10 38 5
400 1 2.2689958229868061e+01 1.6644613090168767e+00 3.3445163763268793e-01 57 19 -27
482 1 1.8077907608362318e+00 3.2512956462213145e+00 3.1161513634299842e-01 1 75 33
235 1 6.1191437219024776e+00 1.9497555832745528e-01 3.6476564719133293e+00 32 -60 151
393 1 1.4368542421169233e+01 1.3748295837585269e+00 7.7394370720217704e+00 99 39 -80
479 1 1.4475253222077850e+01 1.2010034105498372e+01 8.7276536446988473e-01 -23 -12 -36
158 1 2.0034971028853121e+01 1.0821854621045146e+01 8.2227330701054626e+00 -52 56 -84
118 1 1.7729121376092477e-01 8.3599548032481970e+00 1.5337972194362335e+01 -25 129 -80
170 1 1.7808472052725385e+01 1.1671237026407587e+01 9.1955109091566776e+00 13 32 -23
492 1 1.3754237892270014e+01 7.4866541270677116e+00 1.3432327167636963e+01 7 -17 37
9 1 1.5474674758916017e+01 9.9475182367198602e+00 9.5840920543649215e+00 -45 35 14
78 1 2.9577330773644595e+00 6.2790292184773655e+00 1.0470276256381258e+01 -14 -67 -27
66 1 1.7657802603626159e+01 6.6595935527730257e+00 1.4904947074423148e+01 -21 31 -34
317 1 1.8456407148127823e+01 4.2381192440338591e+00 1.1463137215220101e+01 113 -18 -19
65 1 1.9371555458267601e+01 6.5628046893360112e+00 1.2975928699501464e+01 -26 70 -9
380 1 7.0114464857383334e+00 1.0812276822148608e+01 8.8314769381215736e+00 -7 80 68
129 1 2.3829090008546558e+01 2.1140607046529207e+00 1.2831914084054313e+01 -51 -34 -86
197 1 9.8822919248394641e+00 1.9568170857629366e+00 1.1054146764727141e+01 5 43 50
347 1 1.4542863638310758e+01 2.3407586781242284e-01 1.5064221684313008e+01 -113 12 -1
500 1 4.0273114797490939e+00 4.8937893726342834e+00 1.2989141416037363e+01 60 -79 60
108 1 1.8674129294828510e+00 8.9097034613361803e+00 1.0632406358851705e+01 42 -38 39
62 1 1.3223334170348602e+01 2.2040215027959875e+00 1.3229524282067370e+01 76 -40 -63
49 1 2.0827011166747447e+01 1.2315904975970625e+01 1.5627671796410771e+01 -15 24 -24
228 1 2.7666881931879219e+00 1.0605055803651890e+01 1.2602378481974851e+01 -31 23 21
360 1 2.3005886317566868e+00 1.0457941870631227e+01 1.5133679584701005e+01 -104 -49 69
37 1 2.2507194200608303e+01 1.0095174011610421e+01 1.5060361373816015e+01 49 21 -56
74 1 2.4444240269222512e+01 2.5186445706501095e+00 9.4070162002358639e+00 4 52 -8
184 1 7.6113612192879891e+00 9.5778166643095073e+00 1.1134287836994909e+01 -3 19 38
146 1 1.0984049572629043e+01 1.0057357196837341e+01 8.3200128509947202e+00 -7 -7 6
267 1 2.3587354655107063e+01 8.0385544206349877e+00 1.1485571455015856e+01 -92 76 -50
498 1 1.3544704563632637e+01 1.1172704353707332e+00 1.0498762811410485e+01 33 28 4
120 1 2.2342472418970452e+01 6.2170706460641627e+00 9.6650732563629660e+00 1 -68 63
418 1 1.3916173348420203e+01 3.6119241793967696e+00 1.6091704852084298e+01 -71 -65 -1
291 1 6.5942801489877869e+00 4.3809394085206090e+00 8.5387789976301836e+00 27 113 70
176 1 1.0709257148645341e+01 1.8332187289782595e+00 1.3749767266075068e+01 -95 -93 -32
142 1 1.8078430268908555e+01 8.8109029179414708e+00 1.1462933855057829e+01 14 3 58
215 1 1.1268414735762674e+01 8.7157886028031566e+00 1.3593935791769498e+01 4 -137 -39
437 1 1.0361852245194100e+01 8.5724002709016371e+00 1.0736028966778948e+01 15 9 -116
245 1 1.0715944740920325e+00 2.6670112356477387e+00 1.4634275882475249e+01 -22 11 86
54 1 8.8212046580131904e+00 3.6570691994725695e+00 1.5405667281151699e+01 3 28 40
157 1 2.1340332003846676e+01 9.0731181789440871e+00 1.2663771953626528e+01 -12 -9 56
181 1 1.6605003048335689e+01 7.1258353339935832e-01 1.0707732143996706e+01 80 70 -55
271 1 5.1003050365932969e+00 7.6527254984518001e+00 8.9647798425637966e+00 37 33 -43
262 1 1.5197009468667623e+01 1.1555588465396429e+01 1.4207466966400203e+01 7 50 -40
39 1 1.7723597022561158e+01 4.6327425791462851e+00 8.6996396096984814e+00 -9 45 53
48 1 1.4128226044242821e+01 5.1636487411314409e+00 1.2005166738995934e+01 11 -8 34
361 1 3.8957360364690050e+00 4.0619249638952191e+00 8.7917705616319051e+00 -59 101 -11
117 1 5.9682369274892002e+00 2.7744735907916969e+00 1.2150083310424307e+01 43 52 98
218 1 3.8652453476557844e+00 8.0097135765007685e+00 1.5763183162299512e+01 -52 -16 -32
34 1 6.9575658160903675e+00 6.9864948786760541e+00 1.1133761989793495e+01 -125 -11 121
389 1 1.9630646414076672e+01 2.4589227346426474e+00 1.5828812193446607e+01 3 69 -14
493 1 1.2273495625023754e+01 1.0944585816252120e+01 1.4814145187355512e+01 -53 100 40
409 1 6.6675872219674028e+00 1.9766679953645003e+00 1.4708866469649131e+01 -53 77 58
332 1 9.0713690094415327e+00 9.0294903297610443e+00 1.5684532956650370e+01 17 -26 -100
368 1 2.1142696237252295e+01 4.1234404205064807e+00 1.1190653906445315e+01 50 -37 48
369 1 1.7109128027162750e+00 1.8911094538127776e-01 8.9226975159917377e+00 -2 53 6
469 1 8.2028337374769915e+00 3.8638389293541251e+00 1.0956265586518011e+01 36 3 17
257 1 1.8464922002381869e+01 1.6990817395114097e+00 1.2352511849572826e+01 -26 16 42
63 1 7.3763264832198434e+00 1.1110285946594139e+01 1.4767301203811874e+01 11 2 -95
342 1 2.1122916817069004e+01 1.1932317068542144e+01 1.1765479430836507e+01 35 -10 7
329 1 2.2998667531958015e+00 5.3624143053939948e+00 1.4788957400231460e+01 12 -131 -64
365 1 1.7181297224743346e+01 1.6527272946825531e+00 1.4936871753008916e+01 -13 71 -32
473 1 1.8539183991247690e+01 1.0808073631335027e+01 1.3546912822025705e+01 -47 -31 73
150 1 1.4745261351400703e+01 7.3938595453722051e+00 1.5757352160475982e+01 72 -30 71
225 1 2.1721264410608342e+01 3.3542112640877737e+00 1.3914917572734559e+01 18 67 14
373 1 1.5925842699466939e+01 3.9401411762219745e+00 1.3959996056417362e+01 44 46 -50
59 1 2.1763146217487545e+01 1.8707488742755816e+00 9.7852431746584170e+00 46 -98 58
466 1 4.2683115411466543e+00 2.4774825976915897e+00 1.6055879355673675e+01 111 -32 -20
488 1 6.1617181101891416e-01 4.7873296750831358e+00 1.0673467726958972e+01 -21 -19 20
99 1 2.4464998956970927e+00 2.3544825428502780e+00 1.1680283776046320e+01 -3 -16 43
100 1 7.8579347830324382e+00 6.5634880644265268e+00 1.5590182930199525e+01 45 -133 -16
258 1 5.8693882170234035e+00 6.8156262945765373e+00 1.3710491110436182e+01 119 -42 59
282 1 2.1345738366016520e+00 1.3335558813234627e-01 1.5914252087964524e+01 34 34 67
212 1 1.5161860248171719e+01 5.3093790784478951e+00 9.4162817987450236e+00 -5 -39 -43
101 1 1.0246045430470879e+01 5.7573335904029408e+00 9.9371162137424420e+00 -29 -29 71
478 1 2.1784493265165082e+01 6.0581520513737841e+00 1.4054044705379775e+01 26 -1 32
483 1 1.0477688959122439e+01 5.9228625158517723e+00 1.4447187191125590e+01 38 62 16
193 1 2.0121879615001404e+01 8.1444460375673025e+00 9.4366476842712927e+00 -79 34 -18
356 1 1.5542549705348565e+01 9.5086241620673686e+00 1.2348184939580754e+01 -76 9 -1
436 1 1.1552419934116404e+01 4.9472809592210254e+00 1.2058072955987504e+01 41 62 20
209 1 5.4452080969858638e+00 9.4330981318491975e+00 1.3388524472459801e+01 3 6 -51
301 1 5.3949024253291116e+00 1.3223111141671179e-01 1.1278662404375668e+01 122 34 24
367 1 2.4477835169822292e+01 6.0939210812906008e+00 1.3328135156705176e+01 3 -2 62
387 1 4.6458794126307534e+00 1.2333382651748325e+01 1.6215074833459134e+01 67 -22 124
322 1 1.8475785099963922e+01 9.4828830258117094e+00 1.5923264305371877e+01 24 42 -2
371 1 4.3859721729582635e+00 1.1919874311909984e+01 8.7391538523196868e+00 -69 33 -62
230 1 1.0922845862002115e+01 6.6406502580648696e-01 9.0348875544092824e+00 9 -32 -132
50 1 1.3301509442160796e+01 1.1272266127577209e+01 8.7554830292210148e+00 9 32 -42
110 1 2.4320334333604471e+01 1.1982562781740798e+01 9.0713635214505342e+00 33 -23 -31
70 1 2.3980977575383413e+01 9.4371641822006751e+00 8.9547169608569543e+00 89 -5 6
123 1 9.5640885120007866e+00 1.1155526123577289e+01 1.2391114834946462e+01 -83 -9 5
314 1 4.4175840424143814e-01 1.2216963092694190e+01 1.1814019900561281e+01 -17 16 -10
128 1 1.5412786067515491e+01 9.7857648607988477e+00 1.6364942089632763e+01 27 -1 -23
250 1 2.9944679893922608e+00 9.8000787273992884e+00 8.3997746706743257e+00 -3 13 167
92 1 2.1726403013907920e+01 1.0238477772342904e+01 2.3978028861420967e+01 -50 57 -100
191 1 2.3366886303965153e+01 2.3821474064571388e+00 2.0391424394834686e+01 45 -20 -16
366 1 1.2374096418400496e+01 1.3081245899834970e+00 1.7290484527397247e+01 152 2 -47
475 1 2.3329755369481447e+01 1.2124363623147687e+01 1.7329794643315225e+01 15 -10 -10
246 1 2.1923087468322755e+01 5.7376265283625383e+00 1.6724883901426047e+01 87 53 96
305 1 1.6761019850406889e+01 6.2296792477733112e+00 2.3439489035421481e+01 6 89 38
476 1 1.0137868802625048e+01 9.8649460070737351e+00 2.0828974612828617e+01 -30 -10 -49
254 1 1.3277098998089805e+01 4.4731609069648028e+00 2.1051023425433932e+01 48 103 42
206 1 1.5084436954545749e+01 3.9864782428522814e+00 2.3519586262140827e+01 14 -79 29
213 1 3.3405822004974608e+00 1.0130416112518652e+01 1.9142775693742486e+01 -45 -7 17
312 1 9.3812981740382781e+00 9.2678567903033426e-01 2.2713754353069049e+01 2 18 10
107 1 6.2502211283175892e+00 1.8011458800508131e+00 2.2059514077631405e+01 -37 64 -141
417 1 2.0584187110269333e+01 4.1922182489047648e+00 2.0709466881609465e+01 -1 3 -23
243 1 1.4646751737767069e+01 1.0429042994299383e+01 1.8934242055994403e+01 7 -35 -5
174 1 1.0266115686363840e+01 8.9417076315646415e+00 1.8305362599726593e+01 18 102 -22
57 1 9.1499637976329389e+00 3.5168465840797101e+00 2.2063641027664197e+01 -23 7 37
244 1 2.4384550749021699e+01 7.0368181751363306e+00 1.7954001035089846e+01 -36 64 7
463 1 1.9316250530622540e+01 6.5782986155527183e+00 2.3966650573880692e+01 -37 18 -43
284 1 1.1982941350555787e+01 1.1162497751495660e+01 1.7764231986105457e+01 -77 -57 -19
143 1 1.5327771386223253e+01 6.0742631373060725e+00 1.9848149462994350e+01 36 3 -1
221 1 8.4365200989888844e-01 8.7180590398032294e+00 2.2401640988313801e+01 19 5 43
484 1 1.3598269977669172e+01 8.0877661333476389e+00 2.0028982599773535e+01 -54 -13 96
251 1 1.6670583878257467e+01 1.0376362029679104e+01 2.0923962658478715e+01 -40 22 -35
159 1 1.2035828235528060e+01 1.1180965302784511e+01 2.1993934176067491e+01 -42 55 106
396 1 1.1588005960233064e+01 4.7218589699096221e+00 2.3010648016890634e+01 -9 4 25
384 1 9.9499850126122613e+00 2.4412692708222168e+00 1.7512605992660113e+01 9 6 7
188 1 1.2832565469210262e+01 2.1412486742187584e-01 2.2601572180416973e+01 4 2 67
56 1 1.6685748350890179e+00 1.2296349954232197e+01 1.8930144482143291e+01 -2 74 34
499 1 1.4931469800406434e+01 6.0156727702833568e-01 2.4365354641132448e+01 31 -27 -64
135 1 7.5577217021629028e+00 5.5633837719577244e+00 1.8308581891125705e+01 5 57 -70
349 1 1.1551773258537095e+01 6.4766474108695711e+00 1.9091189196959050e+01 -2 19 56
247 1 5.2575475096683419e+00 4.1129204959175283e+00 1.8380320470914633e+01 14 -12 13
295 1 1.3491396029302156e+00 4.4020003857716778e+00 1.8100949608585296e+01 -44 -10 -14
293 1 8.8057342865217070e+00 8.6379546892886305e-01 1.9359448307795731e+01 16 131 57
441 1 1.9443719546565319e+01 1.0796353308965363e+01 2.0193339601399558e+01 4 -73 -16
508 1 1.4126854721145972e+00 2.7591448573302859e+00 2.0356116820794547e+01 4 26 -66
165 1 1.9468042835247246e+01 6.5178699629143688e+00 1.9312346174213538e+01 98 -9 112
7 1 2.0887980125096391e+01 8.6827479494317910e+00 2.0138326863544663e+01 45 -4 52
433 1 6.3663131723409743e+00 8.6835372992401929e+00 2.1203702931521470e+01 6 -56 -39
363 1 7.6878397166410730e+00 5.2764103724445750e+00 2.3812446970740666e+01 -18 -31 11
88 1 1.2982066992749353e+01 8.7777391150992976e+00 2.2585080293705843e+01 -16 22 60
67 1 2.2796555278654381e+01 5.7072475501562403e+00 2.0139124105824244e+01 -25 -85 -30
133 1 2.1291337242951634e+01 7.9207364334929808e+00 2.2713457086657442e+01 -41 74 -48
279 1 2.3212771825086186e+01 4.2182627641027350e+00 2.3792245905667833e+01 -46 163 50
180 1 1.9194315818631765e+01 2.1551076137657956e+00 2.3888063017590923e+01 -17 290 -23
395 1 7.6111153330572119e+00 8.2684906618560827e+00 1.8881321208076734e+01 -27 52 -47
447 1 3.4300153553027442e+00 6.9842778945010142e+00 2.2829174849271851e+01 -7 -122 19
68 1 1.1309836195321775e+01 7.1922208747392258e+00 2.3823944058893169e+01 0 -27 10
51 1 1.5971975898217714e+01 4.7750418490452917e+00 1.7651039088524897e+01 51 -13 -47
275 1 6.3723736383915437e+00 1.3228821921754510e+00 1.8389632253285221e+01 35 -11 22
340 1 1.5675021481902620e+01 9.1769844123899365e+00 2.3132248923950890e+01 49 34 7
350 1 2.0271531667631727e+01 6.6585313236446031e-01 1.7673759540227302e+01 23 -1 43
172 1 5.3667927374196154e+00 9.7297301379463459e+00 1.7436260065178850e+01 -16 -104 42
321 1 1.5566992856053390e+00 4.4508657835818406e+00 2.2468412924807431e+01 45 23 -74
427 1 1.7324277159682936e+01 7.0567746578555060e+00 2.1008440436968144e+01 127 -18 21
497 1 9.6688597064246764e+00 4.3296863994962695e+00 1.9475750011266037e+01 -3 23 28
388 1 4.1082581506969174e+00 1.3478250908073641e+00 2.4275337603005674e+01 63 -3 38
148 1 1.8865982565467426e+01 2.5627072652860763e+00 1.9242125668818247e+01 -47 48 69
72 1 4.3290480943957927e+00 3.6240494719430356e+00 2.1229546487190738e+01 28 54 49
38 1 3.3743671878463792e+00 5.7919963195354818e+00 1.7678670998733431e+01 -15 61 -20
126 1 2.0795981153216751e+01 8.3561607670154299e+00 1.6928723806891981e+01 -33 -32 -30
481 1 1.5860142149831519e+01 2.1147040448499919e+00 1.9058874386963787e+01 34 -10 -28
327 1 2.4107111145865261e+01 1.0904064470093363e+01 2.0872099669804136e+01 90 -11 4
112 1 1.3228594139301348e+01 1.7918176525211167e+00 2.0249811171348412e+01 23 85 -40
311 1 1.9638622821864288e+01 1.2368642983693906e+01 2.3291431557123907e+01 16 -49 20
153 1 4.7171305949460258e+00 1.0765973788000863e+01 2.1522077077138853e+01 1 -17 80
17 1 5.9141252372305049e+00 6.0979034253778730e+00 2.1892799832363941e+01 35 24 24
429 1 1.9950415918203291e+01 4.9314756605490584e-01 2.1033146481520468e+01 -29 -41 39
465 1 2.2896061373010781e+01 1.4095329055825794e+00 1.8336843388780736e+01 28 36 42
73 1 2.0334789724297963e+01 4.1968536435386481e+00 2.3226175971375532e+01 -56 18 25
338 1 2.2501715733710292e+01 8.3626130946036814e-01 2.2257695701285456e+01 1 -7 36
354 1 2.9402472825580399e+00 1.0532284701708155e+01 2.3351774741462648e+01 9 54 12
156 1 2.3427781190496830e+01 9.7146279358485366e+00 1.8632179974420076e+01 46 24 -19
491 1 1.8534694356909853e+01 1.1841528094713224e+01 1.7672036870179767e+01 -36 -34 -30
20 1 1.8745712354457922e+01 5.3603781269748598e+00 1.6759575539720551e+01 125 22 25
223 1 2.3519572640254587e+01 6.6957964499964238e+00 2.2413980992573585e+01 107 33 9
485 1 1.9367034186465741e+00 7.7715008971653221e+00 1.9617314131277432e+01 -14 2 74
385 1 1.7087578897627630e+01 2.0079709778171182e+00 2.1978149969245017e+01 51 34 52
486 1 8.6954676077578537e+00 8.9793435827363677e+00 2.2883736621248687e+01 56 26 -16
28 1 6.7149819300961813e+00 1.0285514821005423e+01 2.4631735705471257e+01 17 36 18
47 1 2.3598163687684789e+01 3.2799649995970332e+00 1.6597560707689780e+01 24 65 -95
269 1 1.2373264680794728e+01 5.8733023861882003e+00 1.6688847130017628e+01 34 -41 6
85 1 2.4343558894989222e+01 1.6665133801870887e+01 4.7256306305625149e+00 20 43 -101
502 1 3.1359853628560224e+00 2.2537170381282209e+01 7.4888518391634138e+00 -40 -23 -35
334 1 2.2629769351288957e+01 1.8072894791554880e+01 2.2297416563687662e+00 46 63 12
90 1 1.9276797002725576e+00 1.2516046925702311e+01 6.8695700843459084e+00 -47 -42 -67
335 1 2.4428051127314943e+00 1.8416648976070775e+01 4.3528072881177247e+00 20 -17 92
270 1 9.8448673289823319e-02 1.2982180193777616e+01 6.4124964605394041e-01 31 138 110
302 1 1.2343186398133157e+00 1.4561919453212131e+01 3.0329677882538997e+00 42 -73 -39
507 1 6.1002535993197124e+00 1.3695811751078290e+01 4.9740503545110171e+00 -58 19 -11
208 1 2.1356151629292590e+01 1.5725737232511678e+01 5.0115328805624957e+00 23 86 -11
98 1 3.8033324096236094e+00 2.4640166740017499e+01 4.8665028695840311e+00 82 72 -4
5 1 2.2647577755072636e+00 1.8931307812285702e+01 1.3838644470039994e+00 46 43 -1
467 1 1.8652178405980088e+01 1.7290211429914407e+01 4.8681659282956380e+00 -59 95 56
116 1 1.6116769256201351e+01 2.4399668374473855e+01 4.1845040201023700e+00 -42 7 2
141 1 5.5178409907763122e+00 2.4369214590382462e+01 1.2094914555166265e+00 98 78 -6
82 1 1.2334034664311577e+01 2.3081706211860691e+01 7.7192574999596575e+00 -5 -5 13
424 1 1.8951259086074657e+01 2.3542651587181503e+01 4.3812531248567179e+00 33 7 -19
392 1 2.2144835933065778e+01 1.2619264313690177e+01 1.8213101370892493e+00 13 3 -61
313 1 9.0595730660361262e+00 1.2967274436832383e+01 4.0659505607942723e+00 -39 25 48
370 1 1.2838553431977404e+01 2.1849010481036480e+01 3.5576467631889943e+00 -34 111 33
137 1 8.8935982023711802e+00 1.6965227084695478e+01 6.3868134727223040e+00 6 -19 58
155 1 1.5744974921294608e+01 2.3241480279627609e+01 1.4060261975674986e+00 -44 24 38
106 1 3.3092254378587804e+00 1.5994472170851122e+01 2.0264098944551572e+00 11 -15 5
281 1 1.6825241388998840e+01 1.5381744346429643e+01 7.1492578635374002e+00 38 -30 93
323 1 1.1114464731885631e+01 1.7944381267838502e+01 5.5660800995956761e+00 10 -109 20
64 1 1.3140415722561526e+01 1.5280952140189106e+01 2.8614131392355193e+00 -37 63 18
160 1 1.6526204685682700e+01 1.2507184283582042e+01 6.6387317724683541e+00 -16 53 43
374 1 1.9717297937677181e-01 1.5060476321942174e+01 7.1444140183738964e+00 -10 40 2
239 1 8.7853829592317503e+00 1.7680202740844955e+01 1.9945181546051001e+00 43 -21 18
379 1 4.0715230521557855e+00 2.1918260998397024e+01 8.9846390173694746e-01 140 -12 68
457 1 1.6260616733449247e+01 1.5634397405016065e+01 6.6410855379403122e-01 -29 -42 72
411 1 2.1754064172279762e+01 2.2957571974768619e+01 7.2037867661526995e+00 26 100 171
376 1 7.6489033891192495e+00 1.4675810752525654e+01 1.6854629990841907e+00 -84 -3 -9
273 1 7.7363012283607500e+00 1.4436007485834695e+01 7.0091847609011007e+00 80 182 126
145 1 5.5341724837377813e+00 1.8046152280899790e+01 7.0188571837377713e+00 25 -6 -52
122 1 1.4997836578196447e+01 1.7440478674117621e+01 2.5773741447690250e+00 7 5 15
227 1 1.8819379597630338e+01 1.9027467504288801e+01 6.6858652660169104e+00 133 101 -2
119 1 7.9704433793363476e+00 2.3286222255402997e+01 4.6526465696735588e+00 40 73 101
495 1 2.0765087622872137e+01 1.5106758355798153e+01 2.3262926105558850e+00 -28 9 -60
166 1 1.4787068243890218e+01 1.3067811638538723e+01 3.3590367707965871e+00 35 -18 -30
289 1 2.1621263309618662e+01 2.0559345296945402e+01 5.9465167751158301e+00 -32 -14 -57
330 1 1.4233888243029824e+01 2.3979519929392602e+01 5.9759498730554084e+00 -11 21 35
43 1 4.2302383536154675e+00 1.3636619558854859e+01 1.1254879641760369e+00 -18 -4 12
446 1 3.2074466571356748e+00 1.4292859989883523e+01 5.1562592136604550e+00 25 31 -24
127 1 1.2679969671639270e+01 1.8677883351348036e+01 1.6056702700635606e+00 59 70 78
428 1 1.2092703964243485e+01 1.9463878844371855e+01 7.4440640910259086e+00 54 -13 1
440 1 6.4779267833133698e+00 2.1046422237996765e+01 3.7793815430147042e+00 -31 -37 123
183 1 5.5453332284552239e+00 1.6450568430105271e+01 3.8026964978869771e+00 27 80 10
229 1 3.5374778926329449e+00 2.1495263237799399e+01 4.7360967070563689e+00 37 30 15
386 1 2.0597177518580601e+01 2.4243044737012298e+01 1.3926620283185354e-01 85 -44 9
201 1 2.2111990366156924e+01 2.2025020700199640e+01 8.5693407262691723e-01 -103 -48 33
511 1 2.0050577449284255e+01 1.6042808585033214e+01 7.7243890834648070e+00 48 7 96
358 1 1.8262998210479843e+01 1.9215948491717207e+01 2.6716948928265989e+00 -29 94 32
316 1 1.6612895359358440e+01 2.2472017039654041e+01 7.8716379297631356e+00 41 121 60
292 1 1.2556418237368918e+01 1.5700891276723231e+01 5.4783473117034696e+00 -14 22 72
336 1 1.8396483576659833e+01 1.3836595445439338e+01 2.4002249255410888e+00 42 -9 -124
416 1 1.7580071583709440e+01 2.1422975009335566e+01 5.6972425275066305e+00 -8 -29 18
283 1 6.0508103532494895e+00 1.9998776498707905e+01 1.2531643298613597e+00 85 -39 70
226 1 1.6783713760792921e+01 1.5148452056635428e+01 4.2015575295397234e+00 3 15 1
310 1 2.3061943082520187e+01 2.0578242012005383e+01 2.9700046854340956e+00 -8 -22 19
383 1 1.0814795938211031e+01 2.1928315273795555e+01 5.7207444711932967e+00 -40 102 -22
274 1 7.2407225451721287e+00 1.8575843174522717e+01 4.8334249386340753e+00 -47 20 13
453 1 5.4836432595171996e+00 2.0825383382548409e+01 7.5174844644704963e+00 59 -2 4
506 1 3.3128964049902430e+00 1.6719893790252044e+01 6.5292009283849408e+00 -18 -21 -6
272 1 1.9841207806464475e+01 1.7735909288392335e+01 1.3978765716702863e+00 -24 2 108
381 1 1.0654493558848255e+01 1.9522946063869178e+01 3.2747817348441401e+00 30 -104 39
333 1 1.5224832708885280e+01 2.0626735053374240e+01 3.8277558101715456e+00 23 37 27
430 1 1.5422509558475774e+00 2.1778408246447349e+01 2.1768355009632843e+00 64 49 11
187 1 2.4269227105620693e+01 2.3298113004590626e+01 7.7792913695509815e+00 0 21 -5
252 1 1.4439032389669270e+01 1.4756403527614692e+01 7.8541196052368853e+00 -47 -93 3
304 1 1.5076022549870222e+01 1.7285468081385176e+01 5.6084282322283272e+00 -27 -38 123
331 1 6.4042207279377317e-01 2.1198522960107681e+01 5.4730524113639607e+00 37 30 -15
345 1 2.3945089152105112e+01 1.8820332703089505e+01 6.1042496494972545e+00 84 144 -15
382 1 2.4139618100014388e+01 2.3496379835229980e+01 4.4474144581634407e+00 50 1 58
496 1 2.0168119543625245e+01 2.1202737193442218e+01 3.6802479263374419e+00 -6 -26 15
378 1 9.3525387982632253e+00 2.1901679986589087e+01 2.4701030818928307e+00 17 -17 -76
391 1 1.0552259716259108e+01 1.4457354227696339e+01 1.3430622089848274e+00 -86 -32 -12
268 1 1.1082976829751345e+01 1.3020246921538554e+01 5.9761917122768988e+00 -125 1 -7
300 1 2.2643588280504787e+01 1.3777012120741571e+01 6.4265728388859378e+00 -80 67 38
410 1 7.1948248222946329e+00 2.2744137431585372e+01 7.4080073458191027e+00 19 148 4
306 1 6.1338450894785579e+00 1.7545063432858711e+01 6.8580899531672912e-01 -4 72 -65
459 1 1.6199172955704299e+01 2.0533957246174744e+01 7.8229042488349254e-01 59 -14 42
402 1 1.4868918505092276e+01 1.9685681791463502e+01 6.5653894512441537e+00 34 53 -35
341 1 1.2604693251565097e+01 2.3889007643743788e+01 1.4835654641887426e+00 42 -36 61
240 1 2.3088230039543774e+01 1.5762243642798360e+01 1.7868085038826187e-01 -215 135 55
434 1 7.9748380493730107e+00 2.1079476839624320e+01 1.6020533897563954e-01 44 -40 -73
198 1 9.4254769137278771e+00 1.2418387799545151e+01 8.2696648912639734e+00 -35 38 18
343 1 2.4458920687010981e+01 1.8757214233691009e+01 1.4422045741152090e-01 -67 4 146
203 1 6.8639256189588194e+00 1.7190332940884417e+01 9.6809245262364936e+00 106 -113 81
375 1 1.1079143455188841e+01 1.5978473561349494e+01 1.0930619357777326e+01 17 43 -110
147 1 1.8727081399343399e+00 1.9641040061076261e+01 1.2059568813584072e+01 -30 34 90
468 1 2.0950292243750731e+01 1.8574598705624304e+01 8.8144098561860282e+00 63 -2 -38
26 1 7.3314878115906223e+00 1.4462853193064246e+01 1.1180158087123710e+01 -21 22 66
406 1 5.2400601431005116e+00 2.0238404496027009e+01 1.0427416239727867e+01 44 141 -3
438 1 8.3321308101908169e+00 1.3306929111257244e+01 1.6241170346304024e+01 30 -22 -54
471 1 4.8516475998756020e-01 1.7725491063978659e+01 1.5976676805325448e+01 -75 -19 30
237 1 1.4383814686416532e+01 1.4708372996812050e+01 1.2426330956429025e+01 11 -34 -21