LAMMPS (4 Jan 2019)
# LAMMPS input script
boundary p p p
units       real
atom_style  atomic
atom_modify map array sort 0 0
read_data   data.in
  orthogonal box = (0.0779968 0.0779968 0.0779968) to (24.757 24.757 24.757)
  1 by 2 by 3 MPI processor grid
  reading atoms ...
  512 atoms
  reading velocities ...
  512 velocities
pair_style  sw
pair_coeff  * * mW.sw WT

# ----- Variables -----
variable seed equal 16825
variable T equal 220.0000000000
variable P equal 986.923 # 1 bar

# ----- Initialize -----
neighbor 2.0 nsq
neigh_modify delay 0 every 1 check yes
timestep 5 # 5 fs   # Fix timestep here

# ----- Log file output -----
thermo       10000
thermo_style    custom  time temp press pe ke lx ly lz density vol
thermo_modify line multi norm yes flush yes format float %.6f

# ----- equilibruate --------
#velocity  all create ${T} ${seed}
fix 1 all npt temp ${T} ${T} 100 iso ${P} ${P} 1000
fix 1 all npt temp 220 ${T} 100 iso ${P} ${P} 1000
fix 1 all npt temp 220 220 100 iso ${P} ${P} 1000
fix 1 all npt temp 220 220 100 iso 986.923 ${P} 1000
fix 1 all npt temp 220 220 100 iso 986.923 986.923 1000
run 1000000 # 10 ns
Neighbor list info ...
  update every 1 steps, delay 0 steps, check yes
  max neighbors/atom: 2000, page size: 100000
  master list distance cutoff = 6.3065
  ghost atom cutoff = 6.3065
  1 neighbor lists, perpetual/occasional/extra = 1 0 0
  (1) pair sw, perpetual
      attributes: full, newton on
      pair build: full/nsq
      stencil: none
      bin: none
Per MPI rank memory allocation (min/avg/max) = 2.696 | 2.697 | 2.698 Mbytes
---------------- Step        0 ----- CPU =      0.0000 (sec) ----------------
Time     = 0.000000 Temp     = 240.322396 Press    = 833.451408 
PotEng   = -10.552957 KinEng   = 0.714956 Lx       = 24.679006 
Ly       = 24.679006 Lz       = 24.679006 Density  = 1.019008 
Volume   = 15030.831860 
---------------- Step    10000 ----- CPU =      6.0581 (sec) ----------------
Time     = 50000.000000 Temp     = 221.444635 Press    = 1445.328688 
PotEng   = -10.487623 KinEng   = 0.658795 Lx       = 24.640452 
Ly       = 24.640452 Lz       = 24.640452 Density  = 1.023799 
Volume   = 14960.496977 
---------------- Step    20000 ----- CPU =     12.1380 (sec) ----------------
Time     = 100000.000000 Temp     = 213.072061 Press    = 787.901154 
PotEng   = -10.515573 KinEng   = 0.633887 Lx       = 24.709940 
Ly       = 24.709940 Lz       = 24.709940 Density  = 1.015186 
Volume   = 15087.422825 
---------------- Step    30000 ----- CPU =     18.5039 (sec) ----------------
Time     = 150000.000000 Temp     = 202.457157 Press    = 855.632372 
PotEng   = -10.526195 KinEng   = 0.602308 Lx       = 24.517517 
Ly       = 24.517517 Lz       = 24.517517 Density  = 1.039276 
Volume   = 14737.691970 
---------------- Step    40000 ----- CPU =     24.9360 (sec) ----------------
Time     = 200000.000000 Temp     = 214.637621 Press    = 24.220462 
PotEng   = -10.597627 KinEng   = 0.638544 Lx       = 24.711083 
Ly       = 24.711083 Lz       = 24.711083 Density  = 1.015045 
Volume   = 15089.517740 
---------------- Step    50000 ----- CPU =     31.4189 (sec) ----------------
Time     = 250000.000000 Temp     = 216.355316 Press    = 763.276578 
PotEng   = -10.525785 KinEng   = 0.643655 Lx       = 24.622848 
Ly       = 24.622848 Lz       = 24.622848 Density  = 1.025996 
Volume   = 14928.454430 
---------------- Step    60000 ----- CPU =     37.8648 (sec) ----------------
Time     = 300000.000000 Temp     = 223.262998 Press    = 1188.052749 
PotEng   = -10.497549 KinEng   = 0.664205 Lx       = 24.649384 
Ly       = 24.649384 Lz       = 24.649384 Density  = 1.022686 
Volume   = 14976.772201 
---------------- Step    70000 ----- CPU =     44.4792 (sec) ----------------
Time     = 350000.000000 Temp     = 220.758230 Press    = 799.178712 
PotEng   = -10.558068 KinEng   = 0.656753 Lx       = 24.669422 
Ly       = 24.669422 Lz       = 24.669422 Density  = 1.020196 
Volume   = 15013.325927 
---------------- Step    80000 ----- CPU =     51.0421 (sec) ----------------
Time     = 400000.000000 Temp     = 229.700039 Press    = 120.662302 
PotEng   = -10.530095 KinEng   = 0.683355 Lx       = 24.652620 
Ly       = 24.652620 Lz       = 24.652620 Density  = 1.022283 
Volume   = 14982.671544 
---------------- Step    90000 ----- CPU =     57.6238 (sec) ----------------
Time     = 450000.000000 Temp     = 228.253387 Press    = 246.116187 
PotEng   = -10.515647 KinEng   = 0.679051 Lx       = 24.653224 
Ly       = 24.653224 Lz       = 24.653224 Density  = 1.022208 
Volume   = 14983.771519 
---------------- Step   100000 ----- CPU =     64.2616 (sec) ----------------
Time     = 500000.000000 Temp     = 226.622262 Press    = 915.768580 
PotEng   = -10.530740 KinEng   = 0.674199 Lx       = 24.623943 
Ly       = 24.623943 Lz       = 24.623943 Density  = 1.025859 
Volume   = 14930.445897 
---------------- Step   110000 ----- CPU =     70.9176 (sec) ----------------
Time     = 550000.000000 Temp     = 216.370614 Press    = 711.717511 
PotEng   = -10.555034 KinEng   = 0.643700 Lx       = 24.626027 
Ly       = 24.626027 Lz       = 24.626027 Density  = 1.025599 
Volume   = 14934.238244 
---------------- Step   120000 ----- CPU =     77.3863 (sec) ----------------
Time     = 600000.000000 Temp     = 211.404513 Press    = 484.890568 
PotEng   = -10.629734 KinEng   = 0.628926 Lx       = 24.684150 
Ly       = 24.684150 Lz       = 24.684150 Density  = 1.018371 
Volume   = 15040.230935 
---------------- Step   130000 ----- CPU =     83.7039 (sec) ----------------
Time     = 650000.000000 Temp     = 221.150290 Press    = 1378.178431 
PotEng   = -10.532321 KinEng   = 0.657919 Lx       = 24.708464 
Ly       = 24.708464 Lz       = 24.708464 Density  = 1.015368 
Volume   = 15084.719702 
---------------- Step   140000 ----- CPU =     90.2007 (sec) ----------------
Time     = 700000.000000 Temp     = 219.970694 Press    = 1600.262961 
PotEng   = -10.517274 KinEng   = 0.654410 Lx       = 24.572763 
Ly       = 24.572763 Lz       = 24.572763 Density  = 1.032282 
Volume   = 14837.541924 
---------------- Step   150000 ----- CPU =     96.7115 (sec) ----------------
Time     = 750000.000000 Temp     = 221.198272 Press    = 1497.376160 
PotEng   = -10.564037 KinEng   = 0.658062 Lx       = 24.588348 
Ly       = 24.588348 Lz       = 24.588348 Density  = 1.030321 
Volume   = 14865.791676 
---------------- Step   160000 ----- CPU =    103.2533 (sec) ----------------
Time     = 800000.000000 Temp     = 208.067617 Press    = 99.072323 
PotEng   = -10.572666 KinEng   = 0.618999 Lx       = 24.706182 
Ly       = 24.706182 Lz       = 24.706182 Density  = 1.015649 
Volume   = 15080.540606 
---------------- Step   170000 ----- CPU =    109.7875 (sec) ----------------
Time     = 850000.000000 Temp     = 220.232342 Press    = 1318.602143 
PotEng   = -10.582697 KinEng   = 0.655189 Lx       = 24.635280 
Ly       = 24.635280 Lz       = 24.635280 Density  = 1.024444 
Volume   = 14951.077139 
---------------- Step   180000 ----- CPU =    116.2868 (sec) ----------------
Time     = 900000.000000 Temp     = 216.837111 Press    = 1113.308569 
PotEng   = -10.572598 KinEng   = 0.645088 Lx       = 24.761451 
Ly       = 24.761451 Lz       = 24.761451 Density  = 1.008863 
Volume   = 15181.974377 
---------------- Step   190000 ----- CPU =    122.7037 (sec) ----------------
Time     = 950000.000000 Temp     = 209.022268 Press    = 1235.660500 
PotEng   = -10.483334 KinEng   = 0.621839 Lx       = 24.610510 
Ly       = 24.610510 Lz       = 24.610510 Density  = 1.027540 
Volume   = 14906.025114 
---------------- Step   200000 ----- CPU =    129.1231 (sec) ----------------
Time     = 1000000.000000 Temp     = 212.050545 Press    = 962.747488 
PotEng   = -10.617194 KinEng   = 0.630848 Lx       = 24.700260 
Ly       = 24.700260 Lz       = 24.700260 Density  = 1.016380 
Volume   = 15069.699609 
---------------- Step   210000 ----- CPU =    135.5907 (sec) ----------------
Time     = 1050000.000000 Temp     = 211.867881 Press    = 585.979482 
PotEng   = -10.500462 KinEng   = 0.630304 Lx       = 24.656790 
Ly       = 24.656790 Lz       = 24.656790 Density  = 1.021765 
Volume   = 14990.276003 
---------------- Step   220000 ----- CPU =    142.1066 (sec) ----------------
Time     = 1100000.000000 Temp     = 224.636747 Press    = 971.416165 
PotEng   = -10.626959 KinEng   = 0.668292 Lx       = 24.791587 
Ly       = 24.791587 Lz       = 24.791587 Density  = 1.005189 
Volume   = 15237.474782 
---------------- Step   230000 ----- CPU =    148.3992 (sec) ----------------
Time     = 1150000.000000 Temp     = 228.274071 Press    = 765.985781 
PotEng   = -10.520900 KinEng   = 0.679113 Lx       = 24.588113 
Ly       = 24.588113 Lz       = 24.588113 Density  = 1.030350 
Volume   = 14865.365636 
---------------- Step   240000 ----- CPU =    154.8654 (sec) ----------------
Time     = 1200000.000000 Temp     = 221.382232 Press    = 1702.037018 
PotEng   = -10.520371 KinEng   = 0.658610 Lx       = 24.668073 
Ly       = 24.668073 Lz       = 24.668073 Density  = 1.020363 
Volume   = 15010.863743 
---------------- Step   250000 ----- CPU =    161.2725 (sec) ----------------
Time     = 1250000.000000 Temp     = 222.442427 Press    = 2055.922919 
PotEng   = -10.564479 KinEng   = 0.661764 Lx       = 24.647612 
Ly       = 24.647612 Lz       = 24.647612 Density  = 1.022907 
Volume   = 14973.542824 
---------------- Step   260000 ----- CPU =    167.7678 (sec) ----------------
Time     = 1300000.000000 Temp     = 216.517430 Press    = 1318.894653 
PotEng   = -10.633053 KinEng   = 0.644137 Lx       = 24.694807 
Ly       = 24.694807 Lz       = 24.694807 Density  = 1.017053 
Volume   = 15059.720945 
---------------- Step   270000 ----- CPU =    174.2506 (sec) ----------------
Time     = 1350000.000000 Temp     = 231.897070 Press    = -579.615253 
PotEng   = -10.568295 KinEng   = 0.689891 Lx       = 24.752978 
Ly       = 24.752978 Lz       = 24.752978 Density  = 1.009900 
Volume   = 15166.394627 
---------------- Step   280000 ----- CPU =    180.7472 (sec) ----------------
Time     = 1400000.000000 Temp     = 219.049082 Press    = 981.907246 
PotEng   = -10.542214 KinEng   = 0.651668 Lx       = 24.658279 
Ly       = 24.658279 Lz       = 24.658279 Density  = 1.021580 
Volume   = 14992.991626 
---------------- Step   290000 ----- CPU =    187.2249 (sec) ----------------
Time     = 1450000.000000 Temp     = 225.019776 Press    = 833.358598 
PotEng   = -10.608137 KinEng   = 0.669431 Lx       = 24.691643 
Ly       = 24.691643 Lz       = 24.691643 Density  = 1.017444 
Volume   = 15053.932926 
---------------- Step   300000 ----- CPU =    193.6925 (sec) ----------------
Time     = 1500000.000000 Temp     = 234.518783 Press    = 830.506890 
PotEng   = -10.558324 KinEng   = 0.697691 Lx       = 24.714146 
Ly       = 24.714146 Lz       = 24.714146 Density  = 1.014667 
Volume   = 15095.128328 
---------------- Step   310000 ----- CPU =    200.1793 (sec) ----------------
Time     = 1550000.000000 Temp     = 215.901394 Press    = 427.404518 
PotEng   = -10.552512 KinEng   = 0.642304 Lx       = 24.760537 
Ly       = 24.760537 Lz       = 24.760537 Density  = 1.008975 
Volume   = 15180.294458 
---------------- Step   320000 ----- CPU =    206.7073 (sec) ----------------
Time     = 1600000.000000 Temp     = 225.585850 Press    = -99.673935 
PotEng   = -10.528152 KinEng   = 0.671115 Lx       = 24.691030 
Ly       = 24.691030 Lz       = 24.691030 Density  = 1.017520 
Volume   = 15052.812125 
---------------- Step   330000 ----- CPU =    213.1736 (sec) ----------------
Time     = 1650000.000000 Temp     = 221.677107 Press    = 1770.269081 
PotEng   = -10.536360 KinEng   = 0.659487 Lx       = 24.718041 
Ly       = 24.718041 Lz       = 24.718041 Density  = 1.014188 
Volume   = 15102.267302 
---------------- Step   340000 ----- CPU =    219.5907 (sec) ----------------
Time     = 1700000.000000 Temp     = 226.536993 Press    = -447.378563 
PotEng   = -10.577410 KinEng   = 0.673945 Lx       = 24.662397 
Ly       = 24.662397 Lz       = 24.662397 Density  = 1.021068 
Volume   = 15000.504854 
---------------- Step   350000 ----- CPU =    226.0930 (sec) ----------------
Time     = 1750000.000000 Temp     = 204.667737 Press    = 832.493531 
PotEng   = -10.500948 KinEng   = 0.608884 Lx       = 24.608317 
Ly       = 24.608317 Lz       = 24.608317 Density  = 1.027815 
Volume   = 14902.040325 
---------------- Step   360000 ----- CPU =    232.5919 (sec) ----------------
Time     = 1800000.000000 Temp     = 223.106953 Press    = 53.854359 
PotEng   = -10.557611 KinEng   = 0.663741 Lx       = 24.738814 
Ly       = 24.738814 Lz       = 24.738814 Density  = 1.011635 
Volume   = 15140.373944 
---------------- Step   370000 ----- CPU =    239.0469 (sec) ----------------
Time     = 1850000.000000 Temp     = 218.633631 Press    = 1689.885041 
PotEng   = -10.621224 KinEng   = 0.650432 Lx       = 24.625739 
Ly       = 24.625739 Lz       = 24.625739 Density  = 1.025635 
Volume   = 14933.713630 
---------------- Step   380000 ----- CPU =    245.5284 (sec) ----------------
Time     = 1900000.000000 Temp     = 210.913840 Press    = 1536.377112 
PotEng   = -10.566816 KinEng   = 0.627466 Lx       = 24.640616 
Ly       = 24.640616 Lz       = 24.640616 Density  = 1.023778 
Volume   = 14960.794547 
---------------- Step   390000 ----- CPU =    251.9450 (sec) ----------------
Time     = 1950000.000000 Temp     = 219.307739 Press    = 389.197461 
PotEng   = -10.531519 KinEng   = 0.652438 Lx       = 24.698852 
Ly       = 24.698852 Lz       = 24.698852 Density  = 1.016553 
Volume   = 15067.121630 
---------------- Step   400000 ----- CPU =    258.4115 (sec) ----------------
Time     = 2000000.000000 Temp     = 218.531182 Press    = 1583.011879 
PotEng   = -10.567721 KinEng   = 0.650128 Lx       = 24.622157 
Ly       = 24.622157 Lz       = 24.622157 Density  = 1.026082 
Volume   = 14927.198622 
---------------- Step   410000 ----- CPU =    264.9731 (sec) ----------------
Time     = 2050000.000000 Temp     = 230.134315 Press    = 440.547561 
PotEng   = -10.540865 KinEng   = 0.684647 Lx       = 24.643600 
Ly       = 24.643600 Lz       = 24.643600 Density  = 1.023406 
Volume   = 14966.231014 
---------------- Step   420000 ----- CPU =    271.5902 (sec) ----------------
Time     = 2100000.000000 Temp     = 226.435382 Press    = 1614.191968 
PotEng   = -10.520441 KinEng   = 0.673643 Lx       = 24.570570 
Ly       = 24.570570 Lz       = 24.570570 Density  = 1.032559 
Volume   = 14833.570204 
---------------- Step   430000 ----- CPU =    278.0427 (sec) ----------------
Time     = 2150000.000000 Temp     = 221.344772 Press    = 1127.006061 
PotEng   = -10.493127 KinEng   = 0.658498 Lx       = 24.758051 
Ly       = 24.758051 Lz       = 24.758051 Density  = 1.009279 
Volume   = 15175.722776 
---------------- Step   440000 ----- CPU =    284.5484 (sec) ----------------
Time     = 2200000.000000 Temp     = 220.309592 Press    = 1636.708533 
PotEng   = -10.586802 KinEng   = 0.655418 Lx       = 24.584156 
Ly       = 24.584156 Lz       = 24.584156 Density  = 1.030848 
Volume   = 14858.190736 
---------------- Step   450000 ----- CPU =    291.0066 (sec) ----------------
Time     = 2250000.000000 Temp     = 230.872133 Press    = 1333.346671 
PotEng   = -10.569034 KinEng   = 0.686842 Lx       = 24.646626 
Ly       = 24.646626 Lz       = 24.646626 Density  = 1.023029 
Volume   = 14971.745521 
---------------- Step   460000 ----- CPU =    297.3944 (sec) ----------------
Time     = 2300000.000000 Temp     = 216.446591 Press    = 416.963414 
PotEng   = -10.502190 KinEng   = 0.643926 Lx       = 24.636993 
Ly       = 24.636993 Lz       = 24.636993 Density  = 1.024230 
Volume   = 14954.197509 
---------------- Step   470000 ----- CPU =    303.8741 (sec) ----------------
Time     = 2350000.000000 Temp     = 218.848091 Press    = 1667.392400 
PotEng   = -10.586415 KinEng   = 0.651070 Lx       = 24.601171 
Ly       = 24.601171 Lz       = 24.601171 Density  = 1.028711 
Volume   = 14889.061369 
---------------- Step   480000 ----- CPU =    310.2870 (sec) ----------------
Time     = 2400000.000000 Temp     = 219.943870 Press    = 345.869176 
PotEng   = -10.536195 KinEng   = 0.654330 Lx       = 24.655628 
Ly       = 24.655628 Lz       = 24.655628 Density  = 1.021909 
Volume   = 14988.156153 
---------------- Step   490000 ----- CPU =    316.8206 (sec) ----------------
Time     = 2450000.000000 Temp     = 217.152495 Press    = 1536.685358 
PotEng   = -10.585218 KinEng   = 0.646026 Lx       = 24.672799 
Ly       = 24.672799 Lz       = 24.672799 Density  = 1.019777 
Volume   = 15019.492424 
---------------- Step   500000 ----- CPU =    323.2239 (sec) ----------------
Time     = 2500000.000000 Temp     = 211.460197 Press    = 1075.436284 
PotEng   = -10.565927 KinEng   = 0.629092 Lx       = 24.687951 
Ly       = 24.687951 Lz       = 24.687951 Density  = 1.017901 
Volume   = 15047.180532 
---------------- Step   510000 ----- CPU =    329.6776 (sec) ----------------
Time     = 2550000.000000 Temp     = 217.223426 Press    = 1052.374342 
PotEng   = -10.576087 KinEng   = 0.646237 Lx       = 24.664293 
Ly       = 24.664293 Lz       = 24.664293 Density  = 1.020832 
Volume   = 15003.964759 
---------------- Step   520000 ----- CPU =    336.1572 (sec) ----------------
Time     = 2600000.000000 Temp     = 228.814645 Press    = 879.967101 
PotEng   = -10.542382 KinEng   = 0.680721 Lx       = 24.620396 
Ly       = 24.620396 Lz       = 24.620396 Density  = 1.026303 
Volume   = 14923.995673 
---------------- Step   530000 ----- CPU =    342.6200 (sec) ----------------
Time     = 2650000.000000 Temp     = 224.450852 Press    = 500.358867 
PotEng   = -10.525726 KinEng   = 0.667739 Lx       = 24.641471 
Ly       = 24.641471 Lz       = 24.641471 Density  = 1.023672 
Volume   = 14962.352543 
---------------- Step   540000 ----- CPU =    349.1632 (sec) ----------------
Time     = 2700000.000000 Temp     = 214.558484 Press    = 1091.369320 
PotEng   = -10.532356 KinEng   = 0.638309 Lx       = 24.646068 
Ly       = 24.646068 Lz       = 24.646068 Density  = 1.023099 
Volume   = 14970.728847 
---------------- Step   550000 ----- CPU =    355.5942 (sec) ----------------
Time     = 2750000.000000 Temp     = 229.449887 Press    = 461.190538 
PotEng   = -10.642772 KinEng   = 0.682611 Lx       = 24.741718 
Ly       = 24.741718 Lz       = 24.741718 Density  = 1.011279 
Volume   = 15145.706748 
---------------- Step   560000 ----- CPU =    362.1432 (sec) ----------------
Time     = 2800000.000000 Temp     = 225.719680 Press    = 211.570494 
PotEng   = -10.589607 KinEng   = 0.671513 Lx       = 24.712774 
Ly       = 24.712774 Lz       = 24.712774 Density  = 1.014836 
Volume   = 15092.614205 
---------------- Step   570000 ----- CPU =    368.5566 (sec) ----------------
Time     = 2850000.000000 Temp     = 212.547795 Press    = 1240.451045 
PotEng   = -10.554394 KinEng   = 0.632327 Lx       = 24.650444 
Ly       = 24.650444 Lz       = 24.650444 Density  = 1.022554 
Volume   = 14978.704111 
---------------- Step   580000 ----- CPU =    374.9679 (sec) ----------------
Time     = 2900000.000000 Temp     = 225.925477 Press    = 527.904967 
PotEng   = -10.537214 KinEng   = 0.672126 Lx       = 24.734740 
Ly       = 24.734740 Lz       = 24.734740 Density  = 1.012135 
Volume   = 15132.896953 
---------------- Step   590000 ----- CPU =    381.4902 (sec) ----------------
Time     = 2950000.000000 Temp     = 217.374079 Press    = 891.584129 
PotEng   = -10.549513 KinEng   = 0.646685 Lx       = 24.642590 
Ly       = 24.642590 Lz       = 24.642590 Density  = 1.023532 
Volume   = 14964.390665 
---------------- Step   600000 ----- CPU =    387.9860 (sec) ----------------
Time     = 3000000.000000 Temp     = 227.243907 Press    = 1450.724105 
PotEng   = -10.578489 KinEng   = 0.676048 Lx       = 24.661193 
Ly       = 24.661193 Lz       = 24.661193 Density  = 1.021218 
Volume   = 14998.306495 
---------------- Step   610000 ----- CPU =    394.5255 (sec) ----------------
Time     = 3050000.000000 Temp     = 220.999951 Press    = 1173.178935 
PotEng   = -10.608396 KinEng   = 0.657472 Lx       = 24.650966 
Ly       = 24.650966 Lz       = 24.650966 Density  = 1.022489 
Volume   = 14979.655285 
---------------- Step   620000 ----- CPU =    400.9776 (sec) ----------------
Time     = 3100000.000000 Temp     = 224.569080 Press    = 478.856547 
PotEng   = -10.583637 KinEng   = 0.668090 Lx       = 24.686226 
Ly       = 24.686226 Lz       = 24.686226 Density  = 1.018114 
Volume   = 15044.027820 
---------------- Step   630000 ----- CPU =    407.3753 (sec) ----------------
Time     = 3150000.000000 Temp     = 216.017385 Press    = 586.073599 
PotEng   = -10.625444 KinEng   = 0.642649 Lx       = 24.696571 
Ly       = 24.696571 Lz       = 24.696571 Density  = 1.016835 
Volume   = 15062.947844 
---------------- Step   640000 ----- CPU =    413.9438 (sec) ----------------
Time     = 3200000.000000 Temp     = 202.420813 Press    = 1657.312693 
PotEng   = -10.531205 KinEng   = 0.602200 Lx       = 24.594076 
Ly       = 24.594076 Lz       = 24.594076 Density  = 1.029601 
Volume   = 14876.183333 
---------------- Step   650000 ----- CPU =    420.3953 (sec) ----------------
Time     = 3250000.000000 Temp     = 229.201009 Press    = 714.191791 
PotEng   = -10.536724 KinEng   = 0.681870 Lx       = 24.717740 
Ly       = 24.717740 Lz       = 24.717740 Density  = 1.014225 
Volume   = 15101.715227 
---------------- Step   660000 ----- CPU =    426.8179 (sec) ----------------
Time     = 3300000.000000 Temp     = 220.936500 Press    = 760.643039 
PotEng   = -10.558920 KinEng   = 0.657283 Lx       = 24.699461 
Ly       = 24.699461 Lz       = 24.699461 Density  = 1.016478 
Volume   = 15068.236433 
---------------- Step   670000 ----- CPU =    433.2117 (sec) ----------------
Time     = 3350000.000000 Temp     = 235.005622 Press    = 2050.829632 
PotEng   = -10.493378 KinEng   = 0.699139 Lx       = 24.629510 
Ly       = 24.629510 Lz       = 24.629510 Density  = 1.025164 
Volume   = 14940.575801 
---------------- Step   680000 ----- CPU =    439.8158 (sec) ----------------
Time     = 3400000.000000 Temp     = 225.660618 Press    = 1159.864159 
PotEng   = -10.536784 KinEng   = 0.671338 Lx       = 24.713981 
Ly       = 24.713981 Lz       = 24.713981 Density  = 1.014688 
Volume   = 15094.826984 
---------------- Step   690000 ----- CPU =    446.1926 (sec) ----------------
Time     = 3450000.000000 Temp     = 217.202872 Press    = 1007.031687 
PotEng   = -10.603907 KinEng   = 0.646176 Lx       = 24.739546 
Ly       = 24.739546 Lz       = 24.739546 Density  = 1.011545 
Volume   = 15141.719369 
---------------- Step   700000 ----- CPU =    452.6563 (sec) ----------------
Time     = 3500000.000000 Temp     = 223.142228 Press    = 809.235001 
PotEng   = -10.495354 KinEng   = 0.663845 Lx       = 24.672329 
Ly       = 24.672329 Lz       = 24.672329 Density  = 1.019835 
Volume   = 15018.634525 
---------------- Step   710000 ----- CPU =    459.2138 (sec) ----------------
Time     = 3550000.000000 Temp     = 215.096247 Press    = 1317.036902 
PotEng   = -10.466906 KinEng   = 0.639909 Lx       = 24.633507 
Ly       = 24.633507 Lz       = 24.633507 Density  = 1.024665 
Volume   = 14947.850364 
---------------- Step   720000 ----- CPU =    465.6833 (sec) ----------------
Time     = 3600000.000000 Temp     = 218.366837 Press    = 462.733598 
PotEng   = -10.546229 KinEng   = 0.649639 Lx       = 24.654936 
Ly       = 24.654936 Lz       = 24.654936 Density  = 1.021995 
Volume   = 14986.894514 
---------------- Step   730000 ----- CPU =    472.1066 (sec) ----------------
Time     = 3650000.000000 Temp     = 212.049845 Press    = -413.602713 
PotEng   = -10.533994 KinEng   = 0.630846 Lx       = 24.652352 
Ly       = 24.652352 Lz       = 24.652352 Density  = 1.022317 
Volume   = 14982.182492 
---------------- Step   740000 ----- CPU =    478.6185 (sec) ----------------
Time     = 3700000.000000 Temp     = 217.852936 Press    = 23.506504 
PotEng   = -10.506547 KinEng   = 0.648110 Lx       = 24.640820 
Ly       = 24.640820 Lz       = 24.640820 Density  = 1.023753 
Volume   = 14961.166074 
---------------- Step   750000 ----- CPU =    485.0496 (sec) ----------------
Time     = 3750000.000000 Temp     = 221.010080 Press    = 1936.603023 
PotEng   = -10.499953 KinEng   = 0.657502 Lx       = 24.680393 
Ly       = 24.680393 Lz       = 24.680393 Density  = 1.018836 
Volume   = 15033.364578 
---------------- Step   760000 ----- CPU =    491.4705 (sec) ----------------
Time     = 3800000.000000 Temp     = 235.868382 Press    = 1657.857704 
PotEng   = -10.579593 KinEng   = 0.701706 Lx       = 24.650198 
Ly       = 24.650198 Lz       = 24.650198 Density  = 1.022585 
Volume   = 14978.256139 
---------------- Step   770000 ----- CPU =    497.9912 (sec) ----------------
Time     = 3850000.000000 Temp     = 219.780318 Press    = 466.655215 
PotEng   = -10.588513 KinEng   = 0.653844 Lx       = 24.743643 
Ly       = 24.743643 Lz       = 24.743643 Density  = 1.011043 
Volume   = 15149.242384 
---------------- Step   780000 ----- CPU =    504.4241 (sec) ----------------
Time     = 3900000.000000 Temp     = 214.395171 Press    = 835.452068 
PotEng   = -10.586698 KinEng   = 0.637823 Lx       = 24.694143 
Ly       = 24.694143 Lz       = 24.694143 Density  = 1.017135 
Volume   = 15058.505486 
---------------- Step   790000 ----- CPU =    511.0431 (sec) ----------------
Time     = 3950000.000000 Temp     = 216.851418 Press    = 1078.280617 
PotEng   = -10.566954 KinEng   = 0.645130 Lx       = 24.641197 
Ly       = 24.641197 Lz       = 24.641197 Density  = 1.023706 
Volume   = 14961.853474 
---------------- Step   800000 ----- CPU =    517.5314 (sec) ----------------
Time     = 4000000.000000 Temp     = 231.041740 Press    = -212.173052 
PotEng   = -10.532987 KinEng   = 0.687346 Lx       = 24.726299 
Ly       = 24.726299 Lz       = 24.726299 Density  = 1.013172 
Volume   = 15117.409267 
---------------- Step   810000 ----- CPU =    524.0908 (sec) ----------------
Time     = 4050000.000000 Temp     = 220.870591 Press    = 934.787520 
PotEng   = -10.566103 KinEng   = 0.657087 Lx       = 24.684295 
Ly       = 24.684295 Lz       = 24.684295 Density  = 1.018353 
Volume   = 15040.496050 
---------------- Step   820000 ----- CPU =    530.5578 (sec) ----------------
Time     = 4100000.000000 Temp     = 228.163544 Press    = 1522.781618 
PotEng   = -10.538413 KinEng   = 0.678784 Lx       = 24.619974 
Ly       = 24.619974 Lz       = 24.619974 Density  = 1.026355 
Volume   = 14923.227136 
---------------- Step   830000 ----- CPU =    537.0370 (sec) ----------------
Time     = 4150000.000000 Temp     = 217.200175 Press    = 1563.383251 
PotEng   = -10.595504 KinEng   = 0.646168 Lx       = 24.672081 
Ly       = 24.672081 Lz       = 24.672081 Density  = 1.019866 
Volume   = 15018.181604 
---------------- Step   840000 ----- CPU =    543.5236 (sec) ----------------
Time     = 4200000.000000 Temp     = 197.977508 Press    = 1119.806114 
PotEng   = -10.634820 KinEng   = 0.588981 Lx       = 24.628207 
Ly       = 24.628207 Lz       = 24.628207 Density  = 1.025326 
Volume   = 14938.204402 
---------------- Step   850000 ----- CPU =    549.8952 (sec) ----------------
Time     = 4250000.000000 Temp     = 207.365664 Press    = 924.287346 
PotEng   = -10.632120 KinEng   = 0.616910 Lx       = 24.684444 
Ly       = 24.684444 Lz       = 24.684444 Density  = 1.018334 
Volume   = 15040.769780 
---------------- Step   860000 ----- CPU =    556.3213 (sec) ----------------
Time     = 4300000.000000 Temp     = 213.747629 Press    = 982.743472 
PotEng   = -10.555299 KinEng   = 0.635897 Lx       = 24.700038 
Ly       = 24.700038 Lz       = 24.700038 Density  = 1.016407 
Volume   = 15069.292957 
---------------- Step   870000 ----- CPU =    562.8440 (sec) ----------------
Time     = 4350000.000000 Temp     = 214.324154 Press    = 1040.246800 
PotEng   = -10.553489 KinEng   = 0.637612 Lx       = 24.622170 
Ly       = 24.622170 Lz       = 24.622170 Density  = 1.026081 
Volume   = 14927.222109 
---------------- Step   880000 ----- CPU =    569.3192 (sec) ----------------
Time     = 4400000.000000 Temp     = 227.389090 Press    = 2390.172723 
PotEng   = -10.550790 KinEng   = 0.676480 Lx       = 24.622839 
Ly       = 24.622839 Lz       = 24.622839 Density  = 1.025997 
Volume   = 14928.438635 
---------------- Step   890000 ----- CPU =    575.8206 (sec) ----------------
Time     = 4450000.000000 Temp     = 217.656088 Press    = 612.592985 
PotEng   = -10.537937 KinEng   = 0.647524 Lx       = 24.596743 
Ly       = 24.596743 Lz       = 24.596743 Density  = 1.029266 
Volume   = 14881.022980 
---------------- Step   900000 ----- CPU =    582.3649 (sec) ----------------
Time     = 4500000.000000 Temp     = 228.792094 Press    = 1050.477539 
PotEng   = -10.511594 KinEng   = 0.680654 Lx       = 24.696593 
Ly       = 24.696593 Lz       = 24.696593 Density  = 1.016832 
Volume   = 15062.988160 
---------------- Step   910000 ----- CPU =    588.7517 (sec) ----------------
Time     = 4550000.000000 Temp     = 213.014113 Press    = 1123.847851 
PotEng   = -10.514185 KinEng   = 0.633714 Lx       = 24.619497 
Ly       = 24.619497 Lz       = 24.619497 Density  = 1.026415 
Volume   = 14922.359883 
---------------- Step   920000 ----- CPU =    595.3247 (sec) ----------------
Time     = 4600000.000000 Temp     = 217.945021 Press    = 598.329697 
PotEng   = -10.569667 KinEng   = 0.648384 Lx       = 24.655366 
Ly       = 24.655366 Lz       = 24.655366 Density  = 1.021942 
Volume   = 14987.677967 
---------------- Step   930000 ----- CPU =    601.8124 (sec) ----------------
Time     = 4650000.000000 Temp     = 212.840670 Press    = 314.628701 
PotEng   = -10.495440 KinEng   = 0.633198 Lx       = 24.674713 
Ly       = 24.674713 Lz       = 24.674713 Density  = 1.019540 
Volume   = 15022.988886 
---------------- Step   940000 ----- CPU =    608.3185 (sec) ----------------
Time     = 4700000.000000 Temp     = 225.261636 Press    = 806.280859 
PotEng   = -10.531878 KinEng   = 0.670151 Lx       = 24.651515 
Ly       = 24.651515 Lz       = 24.651515 Density  = 1.022421 
Volume   = 14980.655717 
---------------- Step   950000 ----- CPU =    614.7978 (sec) ----------------
Time     = 4750000.000000 Temp     = 222.415683 Press    = 1828.036934 
PotEng   = -10.592931 KinEng   = 0.661684 Lx       = 24.642846 
Ly       = 24.642846 Lz       = 24.642846 Density  = 1.023500 
Volume   = 14964.857536 
---------------- Step   960000 ----- CPU =    621.2117 (sec) ----------------
Time     = 4800000.000000 Temp     = 215.713720 Press    = 1511.798095 
PotEng   = -10.551870 KinEng   = 0.641746 Lx       = 24.686335 
Ly       = 24.686335 Lz       = 24.686335 Density  = 1.018101 
Volume   = 15044.225523 
---------------- Step   970000 ----- CPU =    627.5585 (sec) ----------------
Time     = 4850000.000000 Temp     = 213.802776 Press    = 2411.448420 
PotEng   = -10.609434 KinEng   = 0.636061 Lx       = 24.665617 
Ly       = 24.665617 Lz       = 24.665617 Density  = 1.020668 
Volume   = 15006.380530 
---------------- Step   980000 ----- CPU =    634.0425 (sec) ----------------
Time     = 4900000.000000 Temp     = 226.640415 Press    = 1224.296127 
PotEng   = -10.581380 KinEng   = 0.674253 Lx       = 24.612004 
Ly       = 24.612004 Lz       = 24.612004 Density  = 1.027353 
Volume   = 14908.740154 
---------------- Step   990000 ----- CPU =    640.5772 (sec) ----------------
Time     = 4950000.000000 Temp     = 224.652930 Press    = 437.329813 
PotEng   = -10.588439 KinEng   = 0.668340 Lx       = 24.719454 
Ly       = 24.719454 Lz       = 24.719454 Density  = 1.014014 
Volume   = 15104.856676 
---------------- Step  1000000 ----- CPU =    646.9999 (sec) ----------------
Time     = 5000000.000000 Temp     = 228.881217 Press    = 132.153759 
PotEng   = -10.587758 KinEng   = 0.680919 Lx       = 24.666127 
Ly       = 24.666127 Lz       = 24.666127 Density  = 1.020605 
Volume   = 15007.311240 
Loop time of 647 on 6 procs for 1000000 steps with 512 atoms

Performance: 667.697 ns/day, 0.036 hours/ns, 1545.595 timesteps/s
93.9% CPU use with 6 MPI tasks x no OpenMP threads

MPI task timing breakdown:
Section |  min time  |  avg time  |  max time  |%varavg| %total
---------------------------------------------------------------
Pair    | 501.39     | 512.78     | 548.46     |  72.9 | 79.25
Neigh   | 12.245     | 12.491     | 13.381     |  11.7 |  1.93
Comm    | 70.658     | 105.69     | 118.47     | 159.8 | 16.34
Output  | 0.0028338  | 0.0052904  | 0.017545   |   7.5 |  0.00
Modify  | 11.94      | 13.187     | 14.275     |  24.9 |  2.04
Other   |            | 2.851      |            |       |  0.44

Nlocal:    85.3333 ave 90 max 81 min
Histogram: 1 0 1 1 0 1 0 1 0 1
Nghost:    580.5 ave 585 max 573 min
Histogram: 1 0 0 0 0 2 1 0 0 2
Neighs:    0 ave 0 max 0 min
Histogram: 6 0 0 0 0 0 0 0 0 0
FullNghs:  2911.33 ave 3101 max 2756 min
Histogram: 1 0 2 0 0 1 0 1 0 1

Total # of neighbors = 17468
Ave neighs/atom = 34.1172
Neighbor list builds = 52843
Dangerous builds = 0
#reset_timestep 0
#unfix 1  # Remove the fix (important!)

# ---- Custom dump ----
# Easier to analyze than LAMMP's log file

variable        engtot equal etotal
variable        utotal equal pe
variable        cellx equal lx
variable        kintemp equal temp
variable        virpress equal press
variable        massdensity equal density
variable 		volume equal vol

fix             thermodata all print 1000 "${massdensity}" file "Ref.density" screen no


# DCD trajectory (every 0.5 ps)
#dump            1 all dcd 5000 traj.dcd

# ----- Temperature/Pressure Controls -----
fix 1 all npt temp ${T} ${T} 100 iso ${P} ${P} 1000
fix 1 all npt temp 220 ${T} 100 iso ${P} ${P} 1000
fix 1 all npt temp 220 220 100 iso ${P} ${P} 1000
fix 1 all npt temp 220 220 100 iso 986.923 ${P} 1000
fix 1 all npt temp 220 220 100 iso 986.923 986.923 1000

run 4000000  # production 20 ns
Per MPI rank memory allocation (min/avg/max) = 2.945 | 2.946 | 2.946 Mbytes
---------------- Step  1000000 ----- CPU =      0.0000 (sec) ----------------
Time     = 5000000.000000 Temp     = 228.881217 Press    = 132.153759 
PotEng   = -10.587758 KinEng   = 0.680919 Lx       = 24.666127 
Ly       = 24.666127 Lz       = 24.666127 Density  = 1.020605 
Volume   = 15007.311240 
---------------- Step  1010000 ----- CPU =      6.5286 (sec) ----------------
Time     = 5050000.000000 Temp     = 238.869642 Press    = 183.361749 
PotEng   = -10.557371 KinEng   = 0.710634 Lx       = 24.656373 
Ly       = 24.656373 Lz       = 24.656373 Density  = 1.021817 
Volume   = 14989.515313 
---------------- Step  1020000 ----- CPU =     12.9810 (sec) ----------------
Time     = 5100000.000000 Temp     = 222.667124 Press    = 2062.501319 
PotEng   = -10.580372 KinEng   = 0.662432 Lx       = 24.585259 
Ly       = 24.585259 Lz       = 24.585259 Density  = 1.030709 
Volume   = 14860.190166 
---------------- Step  1030000 ----- CPU =     19.3565 (sec) ----------------
Time     = 5150000.000000 Temp     = 222.065130 Press    = -2.288036 
PotEng   = -10.509155 KinEng   = 0.660641 Lx       = 24.727246 
Ly       = 24.727246 Lz       = 24.727246 Density  = 1.013056 
Volume   = 15119.145097 
---------------- Step  1040000 ----- CPU =     25.7987 (sec) ----------------
Time     = 5200000.000000 Temp     = 226.957707 Press    = 1071.020907 
PotEng   = -10.569175 KinEng   = 0.675196 Lx       = 24.636691 
Ly       = 24.636691 Lz       = 24.636691 Density  = 1.024268 
Volume   = 14953.646655 
---------------- Step  1050000 ----- CPU =     32.2703 (sec) ----------------
Time     = 5250000.000000 Temp     = 209.291043 Press    = 221.192347 
PotEng   = -10.555718 KinEng   = 0.622638 Lx       = 24.704117 
Ly       = 24.704117 Lz       = 24.704117 Density  = 1.015904 
Volume   = 15076.758861 
---------------- Step  1060000 ----- CPU =     38.6750 (sec) ----------------
Time     = 5300000.000000 Temp     = 206.453818 Press    = -221.438130 
PotEng   = -10.469409 KinEng   = 0.614198 Lx       = 24.695299 
Ly       = 24.695299 Lz       = 24.695299 Density  = 1.016992 
Volume   = 15060.620349 
---------------- Step  1070000 ----- CPU =     45.1229 (sec) ----------------
Time     = 5350000.000000 Temp     = 209.257034 Press    = 1329.784359 
PotEng   = -10.572385 KinEng   = 0.622537 Lx       = 24.600455 
Ly       = 24.600455 Lz       = 24.600455 Density  = 1.028800 
Volume   = 14887.761774 
---------------- Step  1080000 ----- CPU =     51.6657 (sec) ----------------
Time     = 5400000.000000 Temp     = 221.768236 Press    = 1147.537491 
PotEng   = -10.509873 KinEng   = 0.659758 Lx       = 24.562537 
Ly       = 24.562537 Lz       = 24.562537 Density  = 1.033572 
Volume   = 14819.026990 
---------------- Step  1090000 ----- CPU =     58.0222 (sec) ----------------
Time     = 5450000.000000 Temp     = 224.412082 Press    = 1680.589932 
PotEng   = -10.512047 KinEng   = 0.667623 Lx       = 24.600655 
Ly       = 24.600655 Lz       = 24.600655 Density  = 1.028775 
Volume   = 14888.125900 
---------------- Step  1100000 ----- CPU =     64.5962 (sec) ----------------
Time     = 5500000.000000 Temp     = 231.105809 Press    = 1744.271796 
PotEng   = -10.528711 KinEng   = 0.687537 Lx       = 24.570348 
Ly       = 24.570348 Lz       = 24.570348 Density  = 1.032587 
Volume   = 14833.167704 
---------------- Step  1110000 ----- CPU =     71.0515 (sec) ----------------
Time     = 5550000.000000 Temp     = 221.800246 Press    = 632.163144 
PotEng   = -10.458423 KinEng   = 0.659853 Lx       = 24.615203 
Ly       = 24.615203 Lz       = 24.615203 Density  = 1.026952 
Volume   = 14914.554557 
---------------- Step  1120000 ----- CPU =     77.6301 (sec) ----------------
Time     = 5600000.000000 Temp     = 225.282439 Press    = 393.160386 
PotEng   = -10.534838 KinEng   = 0.670213 Lx       = 24.613585 
Ly       = 24.613585 Lz       = 24.613585 Density  = 1.027155 
Volume   = 14911.613702 
---------------- Step  1130000 ----- CPU =     84.1390 (sec) ----------------
Time     = 5650000.000000 Temp     = 224.664054 Press    = 197.372853 
PotEng   = -10.535298 KinEng   = 0.668373 Lx       = 24.794810 
Ly       = 24.794810 Lz       = 24.794810 Density  = 1.004797 
Volume   = 15243.418068 
---------------- Step  1140000 ----- CPU =     90.4842 (sec) ----------------
Time     = 5700000.000000 Temp     = 204.920676 Press    = 1489.377760 
PotEng   = -10.513906 KinEng   = 0.609637 Lx       = 24.682821 
Ly       = 24.682821 Lz       = 24.682821 Density  = 1.018535 
Volume   = 15037.801931 
---------------- Step  1150000 ----- CPU =     96.8762 (sec) ----------------
Time     = 5750000.000000 Temp     = 210.186389 Press    = 996.732904 
PotEng   = -10.553429 KinEng   = 0.625302 Lx       = 24.672385 
Ly       = 24.672385 Lz       = 24.672385 Density  = 1.019829 
Volume   = 15018.735669 
---------------- Step  1160000 ----- CPU =    103.3840 (sec) ----------------
Time     = 5800000.000000 Temp     = 214.671178 Press    = 730.799413 
PotEng   = -10.566496 KinEng   = 0.638644 Lx       = 24.622426 
Ly       = 24.622426 Lz       = 24.622426 Density  = 1.026049 
Volume   = 14927.686328 
---------------- Step  1170000 ----- CPU =    109.8986 (sec) ----------------
Time     = 5850000.000000 Temp     = 244.198744 Press    = 997.249603 
PotEng   = -10.548500 KinEng   = 0.726488 Lx       = 24.700701 
Ly       = 24.700701 Lz       = 24.700701 Density  = 1.016325 
Volume   = 15070.505987 
---------------- Step  1180000 ----- CPU =    116.3321 (sec) ----------------
Time     = 5900000.000000 Temp     = 220.602416 Press    = 1648.822639 
PotEng   = -10.520222 KinEng   = 0.656290 Lx       = 24.627680 
Ly       = 24.627680 Lz       = 24.627680 Density  = 1.025392 
Volume   = 14937.245920 
---------------- Step  1190000 ----- CPU =    122.8154 (sec) ----------------
Time     = 5950000.000000 Temp     = 220.591160 Press    = 980.557446 
PotEng   = -10.548282 KinEng   = 0.656256 Lx       = 24.643959 
Ly       = 24.643959 Lz       = 24.643959 Density  = 1.023362 
Volume   = 14966.885685 
---------------- Step  1200000 ----- CPU =    129.3612 (sec) ----------------
Time     = 6000000.000000 Temp     = 226.468661 Press    = 763.333247 
PotEng   = -10.545398 KinEng   = 0.673742 Lx       = 24.675006 
Ly       = 24.675006 Lz       = 24.675006 Density  = 1.019503 
Volume   = 15023.523655 
---------------- Step  1210000 ----- CPU =    135.9085 (sec) ----------------
Time     = 6050000.000000 Temp     = 216.545282 Press    = 368.466353 
PotEng   = -10.532016 KinEng   = 0.644220 Lx       = 24.795506 
Ly       = 24.795506 Lz       = 24.795506 Density  = 1.004712 
Volume   = 15244.701477 
---------------- Step  1220000 ----- CPU =    142.5154 (sec) ----------------
Time     = 6100000.000000 Temp     = 209.580579 Press    = 1818.702104 
PotEng   = -10.579095 KinEng   = 0.623500 Lx       = 24.544938 
Ly       = 24.544938 Lz       = 24.544938 Density  = 1.035797 
Volume   = 14787.196095 
---------------- Step  1230000 ----- CPU =    149.1277 (sec) ----------------
Time     = 6150000.000000 Temp     = 230.161931 Press    = 149.775421 
PotEng   = -10.551253 KinEng   = 0.684729 Lx       = 24.697787 
Ly       = 24.697787 Lz       = 24.697787 Density  = 1.016685 
Volume   = 15065.173866 
---------------- Step  1240000 ----- CPU =    155.6204 (sec) ----------------
Time     = 6200000.000000 Temp     = 219.840025 Press    = 223.042402 
PotEng   = -10.541577 KinEng   = 0.654021 Lx       = 24.659641 
Ly       = 24.659641 Lz       = 24.659641 Density  = 1.021410 
Volume   = 14995.475578 
---------------- Step  1250000 ----- CPU =    162.2221 (sec) ----------------
Time     = 6250000.000000 Temp     = 220.522616 Press    = 2842.071924 
PotEng   = -10.502227 KinEng   = 0.656052 Lx       = 24.485449 
Ly       = 24.485449 Lz       = 24.485449 Density  = 1.043365 
Volume   = 14679.937746 
---------------- Step  1260000 ----- CPU =    168.7097 (sec) ----------------
Time     = 6300000.000000 Temp     = 221.101421 Press    = 572.044963 
PotEng   = -10.579982 KinEng   = 0.657774 Lx       = 24.732231 
Ly       = 24.732231 Lz       = 24.732231 Density  = 1.012443 
Volume   = 15128.292227 
---------------- Step  1270000 ----- CPU =    175.0994 (sec) ----------------
Time     = 6350000.000000 Temp     = 219.269155 Press    = 582.558160 
PotEng   = -10.494441 KinEng   = 0.652323 Lx       = 24.659560 
Ly       = 24.659560 Lz       = 24.659560 Density  = 1.021420 
Volume   = 14995.327894 
---------------- Step  1280000 ----- CPU =    181.7071 (sec) ----------------
Time     = 6400000.000000 Temp     = 217.870263 Press    = 1007.999919 
PotEng   = -10.538134 KinEng   = 0.648161 Lx       = 24.619203 
Ly       = 24.619203 Lz       = 24.619203 Density  = 1.026452 
Volume   = 14921.826008 
---------------- Step  1290000 ----- CPU =    188.2322 (sec) ----------------
Time     = 6450000.000000 Temp     = 224.378873 Press    = 736.637475 
PotEng   = -10.543960 KinEng   = 0.667524 Lx       = 24.651848 
Ly       = 24.651848 Lz       = 24.651848 Density  = 1.022379 
Volume   = 14981.264336 
---------------- Step  1300000 ----- CPU =    194.7061 (sec) ----------------
Time     = 6500000.000000 Temp     = 221.294698 Press    = 597.552475 
PotEng   = -10.554734 KinEng   = 0.658349 Lx       = 24.766877 
Ly       = 24.766877 Lz       = 24.766877 Density  = 1.008200 
Volume   = 15191.958489 
---------------- Step  1310000 ----- CPU =    201.2974 (sec) ----------------
Time     = 6550000.000000 Temp     = 206.029570 Press    = 1242.846026 
PotEng   = -10.575439 KinEng   = 0.612936 Lx       = 24.613073 
Ly       = 24.613073 Lz       = 24.613073 Density  = 1.027219 
Volume   = 14910.682421 
---------------- Step  1320000 ----- CPU =    207.7091 (sec) ----------------
Time     = 6600000.000000 Temp     = 226.964494 Press    = 418.779633 
PotEng   = -10.587823 KinEng   = 0.675217 Lx       = 24.654790 
Ly       = 24.654790 Lz       = 24.654790 Density  = 1.022013 
Volume   = 14986.626970 
---------------- Step  1330000 ----- CPU =    214.1807 (sec) ----------------
Time     = 6650000.000000 Temp     = 233.716869 Press    = 1125.129333 
PotEng   = -10.571890 KinEng   = 0.695305 Lx       = 24.653521 
Ly       = 24.653521 Lz       = 24.653521 Density  = 1.022171 
Volume   = 14984.313794 
---------------- Step  1340000 ----- CPU =    220.6831 (sec) ----------------
Time     = 6700000.000000 Temp     = 207.297946 Press    = 1107.445640 
PotEng   = -10.527789 KinEng   = 0.616709 Lx       = 24.615401 
Ly       = 24.615401 Lz       = 24.615401 Density  = 1.026928 
Volume   = 14914.912837 
---------------- Step  1350000 ----- CPU =    227.1556 (sec) ----------------
Time     = 6750000.000000 Temp     = 219.000656 Press    = 1307.549004 
PotEng   = -10.567986 KinEng   = 0.651524 Lx       = 24.679236 
Ly       = 24.679236 Lz       = 24.679236 Density  = 1.018979 
Volume   = 15031.250448 
---------------- Step  1360000 ----- CPU =    233.5796 (sec) ----------------
Time     = 6800000.000000 Temp     = 217.789967 Press    = 948.911000 
PotEng   = -10.502499 KinEng   = 0.647923 Lx       = 24.628288 
Ly       = 24.628288 Lz       = 24.628288 Density  = 1.025316 
Volume   = 14938.350720 
---------------- Step  1370000 ----- CPU =    239.9708 (sec) ----------------
Time     = 6850000.000000 Temp     = 221.423033 Press    = -136.497667 
PotEng   = -10.542193 KinEng   = 0.658731 Lx       = 24.768625 
Ly       = 24.768625 Lz       = 24.768625 Density  = 1.007987 
Volume   = 15195.174614 
---------------- Step  1380000 ----- CPU =    246.4846 (sec) ----------------
Time     = 6900000.000000 Temp     = 210.824537 Press    = 539.651979 
PotEng   = -10.488292 KinEng   = 0.627201 Lx       = 24.664469 
Ly       = 24.664469 Lz       = 24.664469 Density  = 1.020811 
Volume   = 15004.285100 
---------------- Step  1390000 ----- CPU =    252.9012 (sec) ----------------
Time     = 6950000.000000 Temp     = 219.758299 Press    = 1242.457241 
PotEng   = -10.557352 KinEng   = 0.653778 Lx       = 24.644600 
Ly       = 24.644600 Lz       = 24.644600 Density  = 1.023282 
Volume   = 14968.052447 
---------------- Step  1400000 ----- CPU =    259.4135 (sec) ----------------
Time     = 7000000.000000 Temp     = 231.805837 Press    = 680.770228 
PotEng   = -10.595827 KinEng   = 0.689620 Lx       = 24.689161 
Ly       = 24.689161 Lz       = 24.689161 Density  = 1.017751 
Volume   = 15049.393530 
---------------- Step  1410000 ----- CPU =    265.9384 (sec) ----------------
Time     = 7050000.000000 Temp     = 212.245867 Press    = 1646.571267 
PotEng   = -10.507026 KinEng   = 0.631429 Lx       = 24.605892 
Ly       = 24.605892 Lz       = 24.605892 Density  = 1.028118 
Volume   = 14897.636214 
---------------- Step  1420000 ----- CPU =    272.3655 (sec) ----------------
Time     = 7100000.000000 Temp     = 228.004821 Press    = 567.627104 
PotEng   = -10.500781 KinEng   = 0.678312 Lx       = 24.753268 
Ly       = 24.753268 Lz       = 24.753268 Density  = 1.009864 
Volume   = 15166.928795 
---------------- Step  1430000 ----- CPU =    278.9540 (sec) ----------------
Time     = 7150000.000000 Temp     = 229.748764 Press    = -490.484302 
PotEng   = -10.498821 KinEng   = 0.683500 Lx       = 24.884067 
Ly       = 24.884067 Lz       = 24.884067 Density  = 0.994023 
Volume   = 15408.632295 
---------------- Step  1440000 ----- CPU =    285.3760 (sec) ----------------
Time     = 7200000.000000 Temp     = 226.826881 Press    = 980.205788 
PotEng   = -10.523992 KinEng   = 0.674807 Lx       = 24.681058 
Ly       = 24.681058 Lz       = 24.681058 Density  = 1.018754 
Volume   = 15034.580903 
---------------- Step  1450000 ----- CPU =    291.8650 (sec) ----------------
Time     = 7250000.000000 Temp     = 224.954676 Press    = 1438.420507 
PotEng   = -10.526863 KinEng   = 0.669237 Lx       = 24.708315 
Ly       = 24.708315 Lz       = 24.708315 Density  = 1.015386 
Volume   = 15084.446039 
---------------- Step  1460000 ----- CPU =    298.2987 (sec) ----------------
Time     = 7300000.000000 Temp     = 242.436005 Press    = 1175.689925 
PotEng   = -10.521366 KinEng   = 0.721244 Lx       = 24.583051 
Ly       = 24.583051 Lz       = 24.583051 Density  = 1.030987 
Volume   = 14856.187113 
---------------- Step  1470000 ----- CPU =    304.7560 (sec) ----------------
Time     = 7350000.000000 Temp     = 207.255393 Press    = 333.910014 
PotEng   = -10.521471 KinEng   = 0.616582 Lx       = 24.770658 
Ly       = 24.770658 Lz       = 24.770658 Density  = 1.007739 
Volume   = 15198.916496 
---------------- Step  1480000 ----- CPU =    311.2151 (sec) ----------------
Time     = 7400000.000000 Temp     = 213.310694 Press    = 1245.747171 
PotEng   = -10.589755 KinEng   = 0.634597 Lx       = 24.563581 
Ly       = 24.563581 Lz       = 24.563581 Density  = 1.033440 
Volume   = 14820.915936 
---------------- Step  1490000 ----- CPU =    317.7512 (sec) ----------------
Time     = 7450000.000000 Temp     = 216.999263 Press    = 1024.521308 
PotEng   = -10.547932 KinEng   = 0.645570 Lx       = 24.601077 
Ly       = 24.601077 Lz       = 24.601077 Density  = 1.028722 
Volume   = 14888.890882 
---------------- Step  1500000 ----- CPU =    324.2149 (sec) ----------------
Time     = 7500000.000000 Temp     = 214.540647 Press    = 1939.315726 
PotEng   = -10.599639 KinEng   = 0.638256 Lx       = 24.624255 
Ly       = 24.624255 Lz       = 24.624255 Density  = 1.025820 
Volume   = 14931.013691 
---------------- Step  1510000 ----- CPU =    330.5822 (sec) ----------------
Time     = 7550000.000000 Temp     = 224.408600 Press    = 1026.341565 
PotEng   = -10.597924 KinEng   = 0.667613 Lx       = 24.680497 
Ly       = 24.680497 Lz       = 24.680497 Density  = 1.018823 
Volume   = 15033.555149 
---------------- Step  1520000 ----- CPU =    336.9798 (sec) ----------------
Time     = 7600000.000000 Temp     = 212.485240 Press    = 1181.457416 
PotEng   = -10.527018 KinEng   = 0.632141 Lx       = 24.666722 
Ly       = 24.666722 Lz       = 24.666722 Density  = 1.020531 
Volume   = 15008.397635 
---------------- Step  1530000 ----- CPU =    343.5569 (sec) ----------------
Time     = 7650000.000000 Temp     = 209.335987 Press    = 1959.743879 
PotEng   = -10.539910 KinEng   = 0.622772 Lx       = 24.558372 
Ly       = 24.558372 Lz       = 24.558372 Density  = 1.034098 
Volume   = 14811.488174 
---------------- Step  1540000 ----- CPU =    349.9913 (sec) ----------------
Time     = 7700000.000000 Temp     = 220.913184 Press    = 1940.147473 
PotEng   = -10.594800 KinEng   = 0.657214 Lx       = 24.628346 
Ly       = 24.628346 Lz       = 24.628346 Density  = 1.025309 
Volume   = 14938.457802 
---------------- Step  1550000 ----- CPU =    356.4816 (sec) ----------------
Time     = 7750000.000000 Temp     = 213.562758 Press    = -23.589426 
PotEng   = -10.568521 KinEng   = 0.635347 Lx       = 24.715882 
Ly       = 24.715882 Lz       = 24.715882 Density  = 1.014454 
Volume   = 15098.310106 
---------------- Step  1560000 ----- CPU =    363.0054 (sec) ----------------
Time     = 7800000.000000 Temp     = 207.815833 Press    = 1570.584069 
PotEng   = -10.567316 KinEng   = 0.618250 Lx       = 24.561590 
Ly       = 24.561590 Lz       = 24.561590 Density  = 1.033692 
Volume   = 14817.311963 
---------------- Step  1570000 ----- CPU =    369.4003 (sec) ----------------
Time     = 7850000.000000 Temp     = 224.348036 Press    = 719.527612 
PotEng   = -10.558251 KinEng   = 0.667433 Lx       = 24.727590 
Ly       = 24.727590 Lz       = 24.727590 Density  = 1.013013 
Volume   = 15119.777120 
---------------- Step  1580000 ----- CPU =    375.9093 (sec) ----------------
Time     = 7900000.000000 Temp     = 219.283684 Press    = 877.913049 
PotEng   = -10.553110 KinEng   = 0.652366 Lx       = 24.719591 
Ly       = 24.719591 Lz       = 24.719591 Density  = 1.013997 
Volume   = 15105.108335 
---------------- Step  1590000 ----- CPU =    382.4515 (sec) ----------------
Time     = 7950000.000000 Temp     = 210.705140 Press    = 902.546486 
PotEng   = -10.493532 KinEng   = 0.626845 Lx       = 24.557502 
Ly       = 24.557502 Lz       = 24.557502 Density  = 1.034208 
Volume   = 14809.915690 
---------------- Step  1600000 ----- CPU =    388.9265 (sec) ----------------
Time     = 8000000.000000 Temp     = 210.568692 Press    = 1004.726622 
PotEng   = -10.559996 KinEng   = 0.626439 Lx       = 24.681864 
Ly       = 24.681864 Lz       = 24.681864 Density  = 1.018654 
Volume   = 15036.053513 
---------------- Step  1610000 ----- CPU =    395.4541 (sec) ----------------
Time     = 8050000.000000 Temp     = 211.969812 Press    = 1803.336614 
PotEng   = -10.540161 KinEng   = 0.630608 Lx       = 24.594864 
Ly       = 24.594864 Lz       = 24.594864 Density  = 1.029502 
Volume   = 14877.614162 
---------------- Step  1620000 ----- CPU =    401.8790 (sec) ----------------
Time     = 8100000.000000 Temp     = 216.544201 Press    = 407.011941 
PotEng   = -10.573110 KinEng   = 0.644216 Lx       = 24.713246 
Ly       = 24.713246 Lz       = 24.713246 Density  = 1.014778 
Volume   = 15093.479816 
---------------- Step  1630000 ----- CPU =    408.3772 (sec) ----------------
Time     = 8150000.000000 Temp     = 230.567390 Press    = 635.869927 
PotEng   = -10.486890 KinEng   = 0.685935 Lx       = 24.672967 
Ly       = 24.672967 Lz       = 24.672967 Density  = 1.019756 
Volume   = 15019.798679 
---------------- Step  1640000 ----- CPU =    414.8106 (sec) ----------------
Time     = 8200000.000000 Temp     = 212.985392 Press    = 1625.432122 
PotEng   = -10.582400 KinEng   = 0.633629 Lx       = 24.650214 
Ly       = 24.650214 Lz       = 24.650214 Density  = 1.022583 
Volume   = 14978.284522 
---------------- Step  1650000 ----- CPU =    421.2233 (sec) ----------------
Time     = 8250000.000000 Temp     = 223.028904 Press    = 277.434956 
PotEng   = -10.554194 KinEng   = 0.663508 Lx       = 24.683776 
Ly       = 24.683776 Lz       = 24.683776 Density  = 1.018417 
Volume   = 15039.547403 
---------------- Step  1660000 ----- CPU =    427.7703 (sec) ----------------
Time     = 8300000.000000 Temp     = 212.723302 Press    = 742.002084 
PotEng   = -10.550762 KinEng   = 0.632849 Lx       = 24.618606 
Ly       = 24.618606 Lz       = 24.618606 Density  = 1.026526 
Volume   = 14920.741032 
---------------- Step  1670000 ----- CPU =    434.3513 (sec) ----------------
Time     = 8350000.000000 Temp     = 214.195953 Press    = 1163.415608 
PotEng   = -10.555495 KinEng   = 0.637230 Lx       = 24.730555 
Ly       = 24.730555 Lz       = 24.730555 Density  = 1.012649 
Volume   = 15125.216692 
---------------- Step  1680000 ----- CPU =    440.8322 (sec) ----------------
Time     = 8400000.000000 Temp     = 214.191329 Press    = 1665.286055 
PotEng   = -10.584813 KinEng   = 0.637217 Lx       = 24.621005 
Ly       = 24.621005 Lz       = 24.621005 Density  = 1.026226 
Volume   = 14925.102169 
---------------- Step  1690000 ----- CPU =    447.4146 (sec) ----------------
Time     = 8450000.000000 Temp     = 216.557281 Press    = 1183.824335 
PotEng   = -10.564919 KinEng   = 0.644255 Lx       = 24.645725 
Ly       = 24.645725 Lz       = 24.645725 Density  = 1.023142 
Volume   = 14970.103135 
---------------- Step  1700000 ----- CPU =    453.8732 (sec) ----------------
Time     = 8500000.000000 Temp     = 210.054710 Press    = 98.454847 
PotEng   = -10.585821 KinEng   = 0.624910 Lx       = 24.764002 
Ly       = 24.764002 Lz       = 24.764002 Density  = 1.008551 
Volume   = 15186.668437 
---------------- Step  1710000 ----- CPU =    460.3600 (sec) ----------------
Time     = 8550000.000000 Temp     = 221.378708 Press    = 925.213346 
PotEng   = -10.638716 KinEng   = 0.658599 Lx       = 24.613075 
Ly       = 24.613075 Lz       = 24.613075 Density  = 1.027219 
Volume   = 14910.685663 
---------------- Step  1720000 ----- CPU =    466.8324 (sec) ----------------
Time     = 8600000.000000 Temp     = 226.506953 Press    = 755.339734 
PotEng   = -10.457615 KinEng   = 0.673856 Lx       = 24.686833 
Ly       = 24.686833 Lz       = 24.686833 Density  = 1.018039 
Volume   = 15045.137234 
---------------- Step  1730000 ----- CPU =    473.2769 (sec) ----------------
Time     = 8650000.000000 Temp     = 223.010378 Press    = 1077.823092 
PotEng   = -10.566804 KinEng   = 0.663453 Lx       = 24.634551 
Ly       = 24.634551 Lz       = 24.634551 Density  = 1.024534 
Volume   = 14949.751491 
---------------- Step  1740000 ----- CPU =    479.7612 (sec) ----------------
Time     = 8700000.000000 Temp     = 212.848014 Press    = 1215.177148 
PotEng   = -10.653216 KinEng   = 0.633220 Lx       = 24.674781 
Ly       = 24.674781 Lz       = 24.674781 Density  = 1.019531 
Volume   = 15023.113286 
---------------- Step  1750000 ----- CPU =    486.3000 (sec) ----------------
Time     = 8750000.000000 Temp     = 211.457454 Press    = 949.000536 
PotEng   = -10.619181 KinEng   = 0.629083 Lx       = 24.643947 
Ly       = 24.643947 Lz       = 24.643947 Density  = 1.023363 
Volume   = 14966.863746 
---------------- Step  1760000 ----- CPU =    492.7304 (sec) ----------------
Time     = 8800000.000000 Temp     = 227.161071 Press    = 1128.638117 
PotEng   = -10.511331 KinEng   = 0.675801 Lx       = 24.699079 
Ly       = 24.699079 Lz       = 24.699079 Density  = 1.016525 
Volume   = 15067.537450 
---------------- Step  1770000 ----- CPU =    499.2890 (sec) ----------------
Time     = 8850000.000000 Temp     = 211.396829 Press    = 1331.478880 
PotEng   = -10.595301 KinEng   = 0.628903 Lx       = 24.618006 
Ly       = 24.618006 Lz       = 24.618006 Density  = 1.026601 
Volume   = 14919.650257 
---------------- Step  1780000 ----- CPU =    505.7353 (sec) ----------------
Time     = 8900000.000000 Temp     = 223.412965 Press    = 1687.712042 
PotEng   = -10.531118 KinEng   = 0.664651 Lx       = 24.599830 
Ly       = 24.599830 Lz       = 24.599830 Density  = 1.028879 
Volume   = 14886.627018 
---------------- Step  1790000 ----- CPU =    512.1892 (sec) ----------------
Time     = 8950000.000000 Temp     = 213.392460 Press    = 1196.996901 
PotEng   = -10.687260 KinEng   = 0.634840 Lx       = 24.705781 
Ly       = 24.705781 Lz       = 24.705781 Density  = 1.015698 
Volume   = 15079.806807 
---------------- Step  1800000 ----- CPU =    518.6307 (sec) ----------------
Time     = 9000000.000000 Temp     = 216.988177 Press    = 2217.250969 
PotEng   = -10.520286 KinEng   = 0.645537 Lx       = 24.549725 
Ly       = 24.549725 Lz       = 24.549725 Density  = 1.035191 
Volume   = 14795.848688 
---------------- Step  1810000 ----- CPU =    525.1740 (sec) ----------------
Time     = 9050000.000000 Temp     = 210.617607 Press    = -212.158708 
PotEng   = -10.570794 KinEng   = 0.626585 Lx       = 24.695023 
Ly       = 24.695023 Lz       = 24.695023 Density  = 1.017026 
Volume   = 15060.114717 
---------------- Step  1820000 ----- CPU =    531.6866 (sec) ----------------
Time     = 9100000.000000 Temp     = 232.084266 Press    = 1839.798685 
PotEng   = -10.544363 KinEng   = 0.690448 Lx       = 24.630714 
Ly       = 24.630714 Lz       = 24.630714 Density  = 1.025013 
Volume   = 14942.766430 
---------------- Step  1830000 ----- CPU =    538.1943 (sec) ----------------
Time     = 9150000.000000 Temp     = 230.256752 Press    = 935.528986 
PotEng   = -10.563339 KinEng   = 0.685011 Lx       = 24.651325 
Ly       = 24.651325 Lz       = 24.651325 Density  = 1.022444 
Volume   = 14980.310713 
---------------- Step  1840000 ----- CPU =    544.5966 (sec) ----------------
Time     = 9200000.000000 Temp     = 228.358468 Press    = 1466.700901 
PotEng   = -10.540977 KinEng   = 0.679364 Lx       = 24.670313 
Ly       = 24.670313 Lz       = 24.670313 Density  = 1.020085 
Volume   = 15014.952144 
---------------- Step  1850000 ----- CPU =    551.0882 (sec) ----------------
Time     = 9250000.000000 Temp     = 208.398509 Press    = 754.766637 
PotEng   = -10.554511 KinEng   = 0.619983 Lx       = 24.680692 
Ly       = 24.680692 Lz       = 24.680692 Density  = 1.018799 
Volume   = 15033.910887 
---------------- Step  1860000 ----- CPU =    557.4537 (sec) ----------------
Time     = 9300000.000000 Temp     = 221.010746 Press    = 1909.872118 
PotEng   = -10.536745 KinEng   = 0.657504 Lx       = 24.646279 
Ly       = 24.646279 Lz       = 24.646279 Density  = 1.023073 
Volume   = 14971.111995 
---------------- Step  1870000 ----- CPU =    563.8346 (sec) ----------------
Time     = 9350000.000000 Temp     = 225.497440 Press    = 595.830674 
PotEng   = -10.570557 KinEng   = 0.670852 Lx       = 24.706494 
Ly       = 24.706494 Lz       = 24.706494 Density  = 1.015610 
Volume   = 15081.111665 
---------------- Step  1880000 ----- CPU =    570.1109 (sec) ----------------
Time     = 9400000.000000 Temp     = 227.191850 Press    = 564.425980 
PotEng   = -10.592121 KinEng   = 0.675893 Lx       = 24.668731 
Ly       = 24.668731 Lz       = 24.668731 Density  = 1.020282 
Volume   = 15012.064908 
---------------- Step  1890000 ----- CPU =    576.6133 (sec) ----------------
Time     = 9450000.000000 Temp     = 208.424428 Press    = 926.070663 
PotEng   = -10.508407 KinEng   = 0.620060 Lx       = 24.664038 
Ly       = 24.664038 Lz       = 24.664038 Density  = 1.020864 
Volume   = 15003.499471 
---------------- Step  1900000 ----- CPU =    583.1127 (sec) ----------------
Time     = 9500000.000000 Temp     = 235.685301 Press    = 317.274862 
PotEng   = -10.535015 KinEng   = 0.701161 Lx       = 24.629500 
Ly       = 24.629500 Lz       = 24.629500 Density  = 1.025165 
Volume   = 14940.557814 
---------------- Step  1910000 ----- CPU =    589.5813 (sec) ----------------
Time     = 9550000.000000 Temp     = 224.228991 Press    = 1318.644978 
PotEng   = -10.636499 KinEng   = 0.667079 Lx       = 24.757456 
Ly       = 24.757456 Lz       = 24.757456 Density  = 1.009352 
Volume   = 15174.627972 
---------------- Step  1920000 ----- CPU =    595.9677 (sec) ----------------
Time     = 9600000.000000 Temp     = 212.464701 Press    = 1635.795878 
PotEng   = -10.477166 KinEng   = 0.632080 Lx       = 24.584655 
Ly       = 24.584655 Lz       = 24.584655 Density  = 1.030785 
Volume   = 14859.094627 
---------------- Step  1930000 ----- CPU =    602.4221 (sec) ----------------
Time     = 9650000.000000 Temp     = 219.983360 Press    = 1615.774384 
PotEng   = -10.591061 KinEng   = 0.654448 Lx       = 24.625791 
Ly       = 24.625791 Lz       = 24.625791 Density  = 1.025628 
Volume   = 14933.808028 
---------------- Step  1940000 ----- CPU =    608.8242 (sec) ----------------
Time     = 9700000.000000 Temp     = 224.480856 Press    = 1248.990196 
PotEng   = -10.548952 KinEng   = 0.667828 Lx       = 24.713934 
Ly       = 24.713934 Lz       = 24.713934 Density  = 1.014694 
Volume   = 15094.739922 
---------------- Step  1950000 ----- CPU =    615.3011 (sec) ----------------
Time     = 9750000.000000 Temp     = 219.257923 Press    = 265.528100 
PotEng   = -10.572320 KinEng   = 0.652290 Lx       = 24.752339 
Ly       = 24.752339 Lz       = 24.752339 Density  = 1.009978 
Volume   = 15165.221041 
---------------- Step  1960000 ----- CPU =    621.8233 (sec) ----------------
Time     = 9800000.000000 Temp     = 220.883670 Press    = -24.013046 
PotEng   = -10.480907 KinEng   = 0.657126 Lx       = 24.660272 
Ly       = 24.660272 Lz       = 24.660272 Density  = 1.021332 
Volume   = 14996.627142 
---------------- Step  1970000 ----- CPU =    628.3273 (sec) ----------------
Time     = 9850000.000000 Temp     = 222.205420 Press    = 1931.155630 
PotEng   = -10.502127 KinEng   = 0.661058 Lx       = 24.715309 
Ly       = 24.715309 Lz       = 24.715309 Density  = 1.014524 
Volume   = 15097.259149 
---------------- Step  1980000 ----- CPU =    634.8182 (sec) ----------------
Time     = 9900000.000000 Temp     = 218.651529 Press    = 1128.797701 
PotEng   = -10.511726 KinEng   = 0.650486 Lx       = 24.646755 
Ly       = 24.646755 Lz       = 24.646755 Density  = 1.023013 
Volume   = 14971.979443 
---------------- Step  1990000 ----- CPU =    641.3503 (sec) ----------------
Time     = 9950000.000000 Temp     = 223.770744 Press    = 33.680126 
PotEng   = -10.542485 KinEng   = 0.665715 Lx       = 24.734384 
Ly       = 24.734384 Lz       = 24.734384 Density  = 1.012179 
Volume   = 15132.241743 
---------------- Step  2000000 ----- CPU =    647.9364 (sec) ----------------
Time     = 10000000.000000 Temp     = 212.683446 Press    = 235.610799 
PotEng   = -10.527509 KinEng   = 0.632731 Lx       = 24.669888 
Ly       = 24.669888 Lz       = 24.669888 Density  = 1.020138 
Volume   = 15014.177407 
---------------- Step  2010000 ----- CPU =    654.4633 (sec) ----------------
Time     = 10050000.000000 Temp     = 238.680155 Press    = 1580.398432 
PotEng   = -10.497514 KinEng   = 0.710071 Lx       = 24.571235 
Ly       = 24.571235 Lz       = 24.571235 Density  = 1.032475 
Volume   = 14834.775597 
---------------- Step  2020000 ----- CPU =    660.9705 (sec) ----------------
Time     = 10100000.000000 Temp     = 220.549112 Press    = 1037.381859 
PotEng   = -10.587198 KinEng   = 0.656131 Lx       = 24.626652 
Ly       = 24.626652 Lz       = 24.626652 Density  = 1.025521 
Volume   = 14935.375347 
---------------- Step  2030000 ----- CPU =    667.4372 (sec) ----------------
Time     = 10150000.000000 Temp     = 224.467908 Press    = -135.858204 
PotEng   = -10.540162 KinEng   = 0.667789 Lx       = 24.702020 
Ly       = 24.702020 Lz       = 24.702020 Density  = 1.016162 
Volume   = 15072.920522 
---------------- Step  2040000 ----- CPU =    673.8899 (sec) ----------------
Time     = 10200000.000000 Temp     = 222.158449 Press    = 277.967549 
PotEng   = -10.607073 KinEng   = 0.660919 Lx       = 24.658762 
Ly       = 24.658762 Lz       = 24.658762 Density  = 1.021520 
Volume   = 14993.871547 
---------------- Step  2050000 ----- CPU =    680.3861 (sec) ----------------
Time     = 10250000.000000 Temp     = 223.239365 Press    = 728.781562 
PotEng   = -10.551968 KinEng   = 0.664134 Lx       = 24.651844 
Ly       = 24.651844 Lz       = 24.651844 Density  = 1.022380 
Volume   = 14981.255443 
---------------- Step  2060000 ----- CPU =    686.8634 (sec) ----------------
Time     = 10300000.000000 Temp     = 227.649302 Press    = 1518.096181 
PotEng   = -10.590633 KinEng   = 0.677254 Lx       = 24.680150 
Ly       = 24.680150 Lz       = 24.680150 Density  = 1.018866 
Volume   = 15032.920589 
---------------- Step  2070000 ----- CPU =    693.3187 (sec) ----------------
Time     = 10350000.000000 Temp     = 220.090124 Press    = 1563.166254 
PotEng   = -10.676881 KinEng   = 0.654766 Lx       = 24.732102 
Ly       = 24.732102 Lz       = 24.732102 Density  = 1.012459 
Volume   = 15128.055628 
---------------- Step  2080000 ----- CPU =    699.7258 (sec) ----------------
Time     = 10400000.000000 Temp     = 237.859285 Press    = 1080.227269 
PotEng   = -10.587416 KinEng   = 0.707629 Lx       = 24.689721 
Ly       = 24.689721 Lz       = 24.689721 Density  = 1.017682 
Volume   = 15050.418023 
---------------- Step  2090000 ----- CPU =    706.2455 (sec) ----------------
Time     = 10450000.000000 Temp     = 219.175457 Press    = 1045.012817 
PotEng   = -10.613410 KinEng   = 0.652044 Lx       = 24.671226 
Ly       = 24.671226 Lz       = 24.671226 Density  = 1.019972 
Volume   = 15016.619259 
---------------- Step  2100000 ----- CPU =    712.7724 (sec) ----------------
Time     = 10500000.000000 Temp     = 213.292399 Press    = 1489.557240 
PotEng   = -10.582038 KinEng   = 0.634542 Lx       = 24.671240 
Ly       = 24.671240 Lz       = 24.671240 Density  = 1.019970 
Volume   = 15016.646145 
---------------- Step  2110000 ----- CPU =    719.2188 (sec) ----------------
Time     = 10550000.000000 Temp     = 219.169232 Press    = 1761.652517 
PotEng   = -10.531330 KinEng   = 0.652026 Lx       = 24.568231 
Ly       = 24.568231 Lz       = 24.568231 Density  = 1.032854 
Volume   = 14829.334361 
---------------- Step  2120000 ----- CPU =    725.7454 (sec) ----------------
Time     = 10600000.000000 Temp     = 213.479796 Press    = 287.444270 
PotEng   = -10.490621 KinEng   = 0.635100 Lx       = 24.618399 
Ly       = 24.618399 Lz       = 24.618399 Density  = 1.026552 
Volume   = 14920.363700 
---------------- Step  2130000 ----- CPU =    732.2078 (sec) ----------------
Time     = 10650000.000000 Temp     = 207.359984 Press    = 1677.765939 
PotEng   = -10.671540 KinEng   = 0.616893 Lx       = 24.690726 
Ly       = 24.690726 Lz       = 24.690726 Density  = 1.017557 
Volume   = 15052.255259 
---------------- Step  2140000 ----- CPU =    738.5976 (sec) ----------------
Time     = 10700000.000000 Temp     = 221.767432 Press    = 1535.569404 
PotEng   = -10.620410 KinEng   = 0.659755 Lx       = 24.628632 
Ly       = 24.628632 Lz       = 24.628632 Density  = 1.025273 
Volume   = 14938.977493 
---------------- Step  2150000 ----- CPU =    745.0084 (sec) ----------------
Time     = 10750000.000000 Temp     = 209.024312 Press    = 873.200677 
PotEng   = -10.555575 KinEng   = 0.621845 Lx       = 24.673946 
Ly       = 24.673946 Lz       = 24.673946 Density  = 1.019635 
Volume   = 15021.586918 
---------------- Step  2160000 ----- CPU =    751.4373 (sec) ----------------
Time     = 10800000.000000 Temp     = 210.529397 Press    = 1255.433014 
PotEng   = -10.522721 KinEng   = 0.626322 Lx       = 24.616506 
Ly       = 24.616506 Lz       = 24.616506 Density  = 1.026789 
Volume   = 14916.921973 
---------------- Step  2170000 ----- CPU =    757.9830 (sec) ----------------
Time     = 10850000.000000 Temp     = 221.979513 Press    = 255.222082 
PotEng   = -10.528551 KinEng   = 0.660386 Lx       = 24.592641 
Ly       = 24.592641 Lz       = 24.592641 Density  = 1.029781 
Volume   = 14873.580103 
---------------- Step  2180000 ----- CPU =    764.4860 (sec) ----------------
Time     = 10900000.000000 Temp     = 213.775512 Press    = 356.298563 
PotEng   = -10.550745 KinEng   = 0.635980 Lx       = 24.660195 
Ly       = 24.660195 Lz       = 24.660195 Density  = 1.021342 
Volume   = 14996.486751 
---------------- Step  2190000 ----- CPU =    771.0402 (sec) ----------------
Time     = 10950000.000000 Temp     = 215.486847 Press    = 678.834141 
PotEng   = -10.516213 KinEng   = 0.641071 Lx       = 24.599505 
Ly       = 24.599505 Lz       = 24.599505 Density  = 1.028920 
Volume   = 14886.037516 
---------------- Step  2200000 ----- CPU =    777.5772 (sec) ----------------
Time     = 11000000.000000 Temp     = 226.767059 Press    = 696.236185 
PotEng   = -10.511720 KinEng   = 0.674629 Lx       = 24.635992 
Ly       = 24.635992 Lz       = 24.635992 Density  = 1.024355 
Volume   = 14952.373625 
---------------- Step  2210000 ----- CPU =    784.0376 (sec) ----------------
Time     = 11050000.000000 Temp     = 227.927117 Press    = 621.664612 
PotEng   = -10.541590 KinEng   = 0.678080 Lx       = 24.666321 
Ly       = 24.666321 Lz       = 24.666321 Density  = 1.020581 
Volume   = 15007.666007 
---------------- Step  2220000 ----- CPU =    790.6221 (sec) ----------------
Time     = 11100000.000000 Temp     = 208.630930 Press    = 854.703938 
PotEng   = -10.535895 KinEng   = 0.620675 Lx       = 24.665062 
Ly       = 24.665062 Lz       = 24.665062 Density  = 1.020737 
Volume   = 15005.367458 
---------------- Step  2230000 ----- CPU =    797.1069 (sec) ----------------
Time     = 11150000.000000 Temp     = 217.234256 Press    = 203.712489 
PotEng   = -10.563875 KinEng   = 0.646269 Lx       = 24.650139 
Ly       = 24.650139 Lz       = 24.650139 Density  = 1.022592 
Volume   = 14978.147185 
---------------- Step  2240000 ----- CPU =    803.5567 (sec) ----------------
Time     = 11200000.000000 Temp     = 219.148270 Press    = 572.229768 
PotEng   = -10.499431 KinEng   = 0.651964 Lx       = 24.651827 
Ly       = 24.651827 Lz       = 24.651827 Density  = 1.022382 
Volume   = 14981.224349 
---------------- Step  2250000 ----- CPU =    810.0389 (sec) ----------------
Time     = 11250000.000000 Temp     = 225.763532 Press    = 1148.500223 
PotEng   = -10.548150 KinEng   = 0.671644 Lx       = 24.620859 
Ly       = 24.620859 Lz       = 24.620859 Density  = 1.026245 
Volume   = 14924.837291 
---------------- Step  2260000 ----- CPU =    816.5944 (sec) ----------------
Time     = 11300000.000000 Temp     = 228.101692 Press    = 468.500884 
PotEng   = -10.561298 KinEng   = 0.678600 Lx       = 24.710576 
Ly       = 24.710576 Lz       = 24.710576 Density  = 1.015107 
Volume   = 15088.588715 
---------------- Step  2270000 ----- CPU =    823.1070 (sec) ----------------
Time     = 11350000.000000 Temp     = 224.794505 Press    = 728.431905 
PotEng   = -10.526311 KinEng   = 0.668761 Lx       = 24.652951 
Ly       = 24.652951 Lz       = 24.652951 Density  = 1.022242 
Volume   = 14983.275283 
---------------- Step  2280000 ----- CPU =    829.5680 (sec) ----------------
Time     = 11400000.000000 Temp     = 217.378395 Press    = 1055.546163 
PotEng   = -10.555936 KinEng   = 0.646698 Lx       = 24.583703 
Ly       = 24.583703 Lz       = 24.583703 Density  = 1.030905 
Volume   = 14857.369451 
---------------- Step  2290000 ----- CPU =    835.9525 (sec) ----------------
Time     = 11450000.000000 Temp     = 228.714298 Press    = 957.798222 
PotEng   = -10.566255 KinEng   = 0.680422 Lx       = 24.687102 
Ly       = 24.687102 Lz       = 24.687102 Density  = 1.018006 
Volume   = 15045.627916 
---------------- Step  2300000 ----- CPU =    842.4252 (sec) ----------------
Time     = 11500000.000000 Temp     = 211.525515 Press    = 1336.987991 
PotEng   = -10.640838 KinEng   = 0.629286 Lx       = 24.630291 
Ly       = 24.630291 Lz       = 24.630291 Density  = 1.025066 
Volume   = 14941.995793 
---------------- Step  2310000 ----- CPU =    848.8064 (sec) ----------------
Time     = 11550000.000000 Temp     = 211.849956 Press    = 1113.163327 
PotEng   = -10.612432 KinEng   = 0.630251 Lx       = 24.708794 
Ly       = 24.708794 Lz       = 24.708794 Density  = 1.015327 
Volume   = 15085.323778 
---------------- Step  2320000 ----- CPU =    855.3066 (sec) ----------------
Time     = 11600000.000000 Temp     = 213.629266 Press    = -1128.364172 
PotEng   = -10.482957 KinEng   = 0.635545 Lx       = 24.733195 
Ly       = 24.733195 Lz       = 24.733195 Density  = 1.012325 
Volume   = 15130.060657 
---------------- Step  2330000 ----- CPU =    861.8617 (sec) ----------------
Time     = 11650000.000000 Temp     = 210.557247 Press    = 891.682118 
PotEng   = -10.533498 KinEng   = 0.626405 Lx       = 24.597543 
Ly       = 24.597543 Lz       = 24.597543 Density  = 1.029166 
Volume   = 14882.476603 
---------------- Step  2340000 ----- CPU =    868.3491 (sec) ----------------
Time     = 11700000.000000 Temp     = 225.205865 Press    = 777.185775 
PotEng   = -10.546169 KinEng   = 0.669985 Lx       = 24.648429 
Ly       = 24.648429 Lz       = 24.648429 Density  = 1.022805 
Volume   = 14975.030405 
---------------- Step  2350000 ----- CPU =    874.7538 (sec) ----------------
Time     = 11750000.000000 Temp     = 227.164623 Press    = 1327.525077 
PotEng   = -10.572607 KinEng   = 0.675812 Lx       = 24.581278 
Ly       = 24.581278 Lz       = 24.581278 Density  = 1.031210 
Volume   = 14852.972067 
---------------- Step  2360000 ----- CPU =    881.2013 (sec) ----------------
Time     = 11800000.000000 Temp     = 217.585651 Press    = 301.382025 
PotEng   = -10.515355 KinEng   = 0.647315 Lx       = 24.725598 
Ly       = 24.725598 Lz       = 24.725598 Density  = 1.013258 
Volume   = 15116.123685 
---------------- Step  2370000 ----- CPU =    887.5902 (sec) ----------------
Time     = 11850000.000000 Temp     = 223.689855 Press    = 475.325207 
PotEng   = -10.548687 KinEng   = 0.665475 Lx       = 24.670909 
Ly       = 24.670909 Lz       = 24.670909 Density  = 1.020012 
Volume   = 15016.041061 
---------------- Step  2380000 ----- CPU =    894.1317 (sec) ----------------
Time     = 11900000.000000 Temp     = 222.785476 Press    = 1095.592261 
PotEng   = -10.543608 KinEng   = 0.662784 Lx       = 24.556409 
Ly       = 24.556409 Lz       = 24.556409 Density  = 1.034346 
Volume   = 14807.938453 
---------------- Step  2390000 ----- CPU =    900.5403 (sec) ----------------
Time     = 11950000.000000 Temp     = 218.217843 Press    = 495.630724 
PotEng   = -10.541069 KinEng   = 0.649195 Lx       = 24.769456 
Ly       = 24.769456 Lz       = 24.769456 Density  = 1.007885 
Volume   = 15196.703300 
---------------- Step  2400000 ----- CPU =    906.9602 (sec) ----------------
Time     = 12000000.000000 Temp     = 214.436377 Press    = 823.310549 
PotEng   = -10.475209 KinEng   = 0.637946 Lx       = 24.571569 
Ly       = 24.571569 Lz       = 24.571569 Density  = 1.032433 
Volume   = 14835.380063 
---------------- Step  2410000 ----- CPU =    913.4704 (sec) ----------------
Time     = 12050000.000000 Temp     = 221.766678 Press    = 1596.732352 
PotEng   = -10.575209 KinEng   = 0.659753 Lx       = 24.664565 
Ly       = 24.664565 Lz       = 24.664565 Density  = 1.020799 
Volume   = 15004.461029 
---------------- Step  2420000 ----- CPU =    919.9066 (sec) ----------------
Time     = 12100000.000000 Temp     = 231.948920 Press    = 787.552824 
PotEng   = -10.561093 KinEng   = 0.690045 Lx       = 24.693005 
Ly       = 24.693005 Lz       = 24.693005 Density  = 1.017276 
Volume   = 15056.424044 
---------------- Step  2430000 ----- CPU =    926.2952 (sec) ----------------
Time     = 12150000.000000 Temp     = 222.184308 Press    = 1165.587054 
PotEng   = -10.529529 KinEng   = 0.660996 Lx       = 24.668520 
Ly       = 24.668520 Lz       = 24.668520 Density  = 1.020308 
Volume   = 15011.678730 
---------------- Step  2440000 ----- CPU =    932.7071 (sec) ----------------
Time     = 12200000.000000 Temp     = 213.456934 Press    = 1123.854296 
PotEng   = -10.552456 KinEng   = 0.635032 Lx       = 24.667614 
Ly       = 24.667614 Lz       = 24.667614 Density  = 1.020420 
Volume   = 15010.025658 
---------------- Step  2450000 ----- CPU =    939.2063 (sec) ----------------
Time     = 12250000.000000 Temp     = 214.460877 Press    = 1414.628965 
PotEng   = -10.541315 KinEng   = 0.638019 Lx       = 24.599758 
Ly       = 24.599758 Lz       = 24.599758 Density  = 1.028888 
Volume   = 14886.495983 
---------------- Step  2460000 ----- CPU =    945.6786 (sec) ----------------
Time     = 12300000.000000 Temp     = 221.773797 Press    = 0.728510 
PotEng   = -10.610064 KinEng   = 0.659774 Lx       = 24.787481 
Ly       = 24.787481 Lz       = 24.787481 Density  = 1.005688 
Volume   = 15229.904888 
---------------- Step  2470000 ----- CPU =    952.0742 (sec) ----------------
Time     = 12350000.000000 Temp     = 216.626816 Press    = 1961.119018 
PotEng   = -10.508814 KinEng   = 0.644462 Lx       = 24.550492 
Ly       = 24.550492 Lz       = 24.550492 Density  = 1.035094 
Volume   = 14797.236412 
---------------- Step  2480000 ----- CPU =    958.4336 (sec) ----------------
Time     = 12400000.000000 Temp     = 218.774456 Press    = 1205.866597 
PotEng   = -10.565500 KinEng   = 0.650851 Lx       = 24.725966 
Ly       = 24.725966 Lz       = 24.725966 Density  = 1.013213 
Volume   = 15116.797776 
---------------- Step  2490000 ----- CPU =    964.8396 (sec) ----------------
Time     = 12450000.000000 Temp     = 238.504785 Press    = 351.916348 
PotEng   = -10.558830 KinEng   = 0.709549 Lx       = 24.692152 
Ly       = 24.692152 Lz       = 24.692152 Density  = 1.017381 
Volume   = 15054.864410 
---------------- Step  2500000 ----- CPU =    971.3772 (sec) ----------------
Time     = 12500000.000000 Temp     = 217.170389 Press    = 1513.735953 
PotEng   = -10.503148 KinEng   = 0.646079 Lx       = 24.640133 
Ly       = 24.640133 Lz       = 24.640133 Density  = 1.023838 
Volume   = 14959.916309 
---------------- Step  2510000 ----- CPU =    977.8421 (sec) ----------------
Time     = 12550000.000000 Temp     = 223.232844 Press    = 391.482822 
PotEng   = -10.519158 KinEng   = 0.664115 Lx       = 24.704001 
Ly       = 24.704001 Lz       = 24.704001 Density  = 1.015918 
Volume   = 15076.546370 
---------------- Step  2520000 ----- CPU =    984.4043 (sec) ----------------
[...]
Ly       = 24.672250 Lz       = 24.672250 Density  = 1.019845 
Volume   = 15018.490314 
---------------- Step  4390000 ----- CPU =   2197.4728 (sec) ----------------
Time     = 21950000.000000 Temp     = 229.331690 Press    = 683.698368 
PotEng   = -10.471203 KinEng   = 0.682259 Lx       = 24.679044 
Ly       = 24.679044 Lz       = 24.679044 Density  = 1.019003 
Volume   = 15030.901266 
---------------- Step  4400000 ----- CPU =   2204.0300 (sec) ----------------
Time     = 22000000.000000 Temp     = 215.459071 Press    = 75.248708 
PotEng   = -10.516221 KinEng   = 0.640988 Lx       = 24.678553 
Ly       = 24.678553 Lz       = 24.678553 Density  = 1.019064 
Volume   = 15030.002493 
---------------- Step  4410000 ----- CPU =   2210.4530 (sec) ----------------
Time     = 22050000.000000 Temp     = 220.721676 Press    = 1888.396632 
PotEng   = -10.542992 KinEng   = 0.656644 Lx       = 24.678043 
Ly       = 24.678043 Lz       = 24.678043 Density  = 1.019127 
Volume   = 15029.071788 
---------------- Step  4420000 ----- CPU =   2216.8991 (sec) ----------------
Time     = 22100000.000000 Temp     = 224.382715 Press    = 1705.810717 
PotEng   = -10.523897 KinEng   = 0.667536 Lx       = 24.655927 
Ly       = 24.655927 Lz       = 24.655927 Density  = 1.021872 
Volume   = 14988.702079 
---------------- Step  4430000 ----- CPU =   2223.3711 (sec) ----------------
Time     = 22150000.000000 Temp     = 214.744239 Press    = 535.714061 
PotEng   = -10.597455 KinEng   = 0.638862 Lx       = 24.698535 
Ly       = 24.698535 Lz       = 24.698535 Density  = 1.016593 
Volume   = 15066.541369 
---------------- Step  4440000 ----- CPU =   2229.7872 (sec) ----------------
Time     = 22200000.000000 Temp     = 217.665056 Press    = 328.528323 
PotEng   = -10.521460 KinEng   = 0.647551 Lx       = 24.819074 
Ly       = 24.819074 Lz       = 24.819074 Density  = 1.001853 
Volume   = 15288.212890 
---------------- Step  4450000 ----- CPU =   2236.2946 (sec) ----------------
Time     = 22250000.000000 Temp     = 213.089186 Press    = 1374.263160 
PotEng   = -10.596171 KinEng   = 0.633938 Lx       = 24.611405 
Ly       = 24.611405 Lz       = 24.611405 Density  = 1.027428 
Volume   = 14907.650334 
---------------- Step  4460000 ----- CPU =   2242.8508 (sec) ----------------
Time     = 22300000.000000 Temp     = 215.083451 Press    = 1158.151265 
PotEng   = -10.584751 KinEng   = 0.639871 Lx       = 24.691946 
Ly       = 24.691946 Lz       = 24.691946 Density  = 1.017407 
Volume   = 15054.486946 
---------------- Step  4470000 ----- CPU =   2249.3315 (sec) ----------------
Time     = 22350000.000000 Temp     = 221.715033 Press    = 124.710820 
PotEng   = -10.587597 KinEng   = 0.659600 Lx       = 24.752603 
Ly       = 24.752603 Lz       = 24.752603 Density  = 1.009945 
Volume   = 15165.705685 
---------------- Step  4480000 ----- CPU =   2255.7967 (sec) ----------------
Time     = 22400000.000000 Temp     = 210.192489 Press    = 1254.093418 
PotEng   = -10.517882 KinEng   = 0.625320 Lx       = 24.649602 
Ly       = 24.649602 Lz       = 24.649602 Density  = 1.022659 
Volume   = 14977.168996 
---------------- Step  4490000 ----- CPU =   2262.3144 (sec) ----------------
Time     = 22450000.000000 Temp     = 226.161235 Press    = 1381.030401 
PotEng   = -10.596999 KinEng   = 0.672827 Lx       = 24.566981 
Ly       = 24.566981 Lz       = 24.566981 Density  = 1.033012 
Volume   = 14827.070725 
---------------- Step  4500000 ----- CPU =   2268.7589 (sec) ----------------
Time     = 22500000.000000 Temp     = 223.452244 Press    = 1331.265071 
PotEng   = -10.535126 KinEng   = 0.664768 Lx       = 24.614944 
Ly       = 24.614944 Lz       = 24.614944 Density  = 1.026985 
Volume   = 14914.082555 
---------------- Step  4510000 ----- CPU =   2275.3016 (sec) ----------------
Time     = 22550000.000000 Temp     = 217.883423 Press    = 1446.047414 
PotEng   = -10.527477 KinEng   = 0.648201 Lx       = 24.595547 
Ly       = 24.595547 Lz       = 24.595547 Density  = 1.029416 
Volume   = 14878.852260 
---------------- Step  4520000 ----- CPU =   2281.7324 (sec) ----------------
Time     = 22600000.000000 Temp     = 217.586903 Press    = 871.528515 
PotEng   = -10.526717 KinEng   = 0.647318 Lx       = 24.707603 
Ly       = 24.707603 Lz       = 24.707603 Density  = 1.015474 
Volume   = 15083.142646 
---------------- Step  4530000 ----- CPU =   2288.3073 (sec) ----------------
Time     = 22650000.000000 Temp     = 211.106013 Press    = 292.303182 
PotEng   = -10.516638 KinEng   = 0.628038 Lx       = 24.681789 
Ly       = 24.681789 Lz       = 24.681789 Density  = 1.018663 
Volume   = 15035.916282 
---------------- Step  4540000 ----- CPU =   2294.8204 (sec) ----------------
Time     = 22700000.000000 Temp     = 226.739754 Press    = 1462.923353 
PotEng   = -10.526994 KinEng   = 0.674548 Lx       = 24.672965 
Ly       = 24.672965 Lz       = 24.672965 Density  = 1.019757 
Volume   = 15019.795701 
---------------- Step  4550000 ----- CPU =   2301.3465 (sec) ----------------
Time     = 22750000.000000 Temp     = 234.087673 Press    = 518.627711 
PotEng   = -10.570246 KinEng   = 0.696408 Lx       = 24.714953 
Ly       = 24.714953 Lz       = 24.714953 Density  = 1.014568 
Volume   = 15096.606748 
---------------- Step  4560000 ----- CPU =   2307.8504 (sec) ----------------
Time     = 22800000.000000 Temp     = 223.267678 Press    = 1716.566007 
PotEng   = -10.566479 KinEng   = 0.664219 Lx       = 24.619087 
Ly       = 24.619087 Lz       = 24.619087 Density  = 1.026466 
Volume   = 14921.614458 
---------------- Step  4570000 ----- CPU =   2314.2732 (sec) ----------------
Time     = 22850000.000000 Temp     = 218.970806 Press    = 1263.447059 
PotEng   = -10.538270 KinEng   = 0.651436 Lx       = 24.673918 
Ly       = 24.673918 Lz       = 24.673918 Density  = 1.019638 
Volume   = 15021.536708 
---------------- Step  4580000 ----- CPU =   2320.7517 (sec) ----------------
Time     = 22900000.000000 Temp     = 212.963497 Press    = 949.330201 
PotEng   = -10.586648 KinEng   = 0.633564 Lx       = 24.605094 
Ly       = 24.605094 Lz       = 24.605094 Density  = 1.028218 
Volume   = 14896.186849 
---------------- Step  4590000 ----- CPU =   2327.3326 (sec) ----------------
Time     = 22950000.000000 Temp     = 226.477913 Press    = 1207.069169 
PotEng   = -10.551739 KinEng   = 0.673769 Lx       = 24.619551 
Ly       = 24.619551 Lz       = 24.619551 Density  = 1.026408 
Volume   = 14922.458957 
---------------- Step  4600000 ----- CPU =   2333.8477 (sec) ----------------
Time     = 23000000.000000 Temp     = 215.111652 Press    = 1341.940270 
PotEng   = -10.520145 KinEng   = 0.639955 Lx       = 24.619824 
Ly       = 24.619824 Lz       = 24.619824 Density  = 1.026374 
Volume   = 14922.955302 
---------------- Step  4610000 ----- CPU =   2340.2936 (sec) ----------------
Time     = 23050000.000000 Temp     = 217.403859 Press    = 677.862255 
PotEng   = -10.660330 KinEng   = 0.646774 Lx       = 24.699095 
Ly       = 24.699095 Lz       = 24.699095 Density  = 1.016523 
Volume   = 15067.567347 
---------------- Step  4620000 ----- CPU =   2346.8184 (sec) ----------------
Time     = 23100000.000000 Temp     = 209.426344 Press    = 1180.073039 
PotEng   = -10.510334 KinEng   = 0.623041 Lx       = 24.666406 
Ly       = 24.666406 Lz       = 24.666406 Density  = 1.020570 
Volume   = 15007.820214 
---------------- Step  4630000 ----- CPU =   2353.2324 (sec) ----------------
Time     = 23150000.000000 Temp     = 204.733870 Press    = 1707.709426 
PotEng   = -10.470413 KinEng   = 0.609081 Lx       = 24.602226 
Ly       = 24.602226 Lz       = 24.602226 Density  = 1.028578 
Volume   = 14890.978209 
---------------- Step  4640000 ----- CPU =   2359.7926 (sec) ----------------
Time     = 23200000.000000 Temp     = 225.028740 Press    = 976.776298 
PotEng   = -10.500384 KinEng   = 0.669458 Lx       = 24.596927 
Ly       = 24.596927 Lz       = 24.596927 Density  = 1.029243 
Volume   = 14881.357532 
---------------- Step  4650000 ----- CPU =   2366.3061 (sec) ----------------
Time     = 23250000.000000 Temp     = 214.982691 Press    = 1324.745653 
PotEng   = -10.552275 KinEng   = 0.639571 Lx       = 24.647773 
Ly       = 24.647773 Lz       = 24.647773 Density  = 1.022887 
Volume   = 14973.835809 
---------------- Step  4660000 ----- CPU =   2372.7700 (sec) ----------------
Time     = 23300000.000000 Temp     = 229.763806 Press    = 793.941425 
PotEng   = -10.540591 KinEng   = 0.683545 Lx       = 24.657297 
Ly       = 24.657297 Lz       = 24.657297 Density  = 1.021702 
Volume   = 14991.199196 
---------------- Step  4670000 ----- CPU =   2379.3044 (sec) ----------------
Time     = 23350000.000000 Temp     = 218.480560 Press    = 848.207646 
PotEng   = -10.639555 KinEng   = 0.649977 Lx       = 24.681527 
Ly       = 24.681527 Lz       = 24.681527 Density  = 1.018696 
Volume   = 15035.436843 
---------------- Step  4680000 ----- CPU =   2385.7068 (sec) ----------------
Time     = 23400000.000000 Temp     = 216.154333 Press    = 521.440074 
PotEng   = -10.544799 KinEng   = 0.643057 Lx       = 24.782899 
Ly       = 24.782899 Lz       = 24.782899 Density  = 1.006246 
Volume   = 15221.460587 
---------------- Step  4690000 ----- CPU =   2392.1397 (sec) ----------------
Time     = 23450000.000000 Temp     = 228.753395 Press    = 877.759964 
PotEng   = -10.572509 KinEng   = 0.680539 Lx       = 24.654216 
Ly       = 24.654216 Lz       = 24.654216 Density  = 1.022085 
Volume   = 14985.580451 
---------------- Step  4700000 ----- CPU =   2398.6537 (sec) ----------------
Time     = 23500000.000000 Temp     = 204.411248 Press    = 418.486417 
PotEng   = -10.542022 KinEng   = 0.608121 Lx       = 24.642314 
Ly       = 24.642314 Lz       = 24.642314 Density  = 1.023566 
Volume   = 14963.889175 
---------------- Step  4710000 ----- CPU =   2405.1186 (sec) ----------------
Time     = 23550000.000000 Temp     = 223.533746 Press    = 1393.972170 
PotEng   = -10.684013 KinEng   = 0.665010 Lx       = 24.672690 
Ly       = 24.672690 Lz       = 24.672690 Density  = 1.019791 
Volume   = 15019.293345 
---------------- Step  4720000 ----- CPU =   2411.4304 (sec) ----------------
Time     = 23600000.000000 Temp     = 221.749650 Press    = 811.919074 
PotEng   = -10.567061 KinEng   = 0.659703 Lx       = 24.636444 
Ly       = 24.636444 Lz       = 24.636444 Density  = 1.024298 
Volume   = 14953.196531 
---------------- Step  4730000 ----- CPU =   2418.0331 (sec) ----------------
Time     = 23650000.000000 Temp     = 225.222308 Press    = 903.941684 
PotEng   = -10.563532 KinEng   = 0.670034 Lx       = 24.639098 
Ly       = 24.639098 Lz       = 24.639098 Density  = 1.023967 
Volume   = 14958.030247 
---------------- Step  4740000 ----- CPU =   2424.3975 (sec) ----------------
Time     = 23700000.000000 Temp     = 210.787204 Press    = 1734.064149 
PotEng   = -10.624642 KinEng   = 0.627089 Lx       = 24.622322 
Ly       = 24.622322 Lz       = 24.622322 Density  = 1.026062 
Volume   = 14927.498459 
---------------- Step  4750000 ----- CPU =   2430.8887 (sec) ----------------
Time     = 23750000.000000 Temp     = 204.351673 Press    = 1728.514041 
PotEng   = -10.543025 KinEng   = 0.607944 Lx       = 24.621955 
Ly       = 24.621955 Lz       = 24.621955 Density  = 1.026108 
Volume   = 14926.830977 
---------------- Step  4760000 ----- CPU =   2437.3610 (sec) ----------------
Time     = 23800000.000000 Temp     = 213.411579 Press    = 231.128537 
PotEng   = -10.531895 KinEng   = 0.634897 Lx       = 24.728469 
Ly       = 24.728469 Lz       = 24.728469 Density  = 1.012905 
Volume   = 15121.388349 
---------------- Step  4770000 ----- CPU =   2443.8352 (sec) ----------------
Time     = 23850000.000000 Temp     = 229.831271 Press    = 1322.658742 
PotEng   = -10.654798 KinEng   = 0.683745 Lx       = 24.702802 
Ly       = 24.702802 Lz       = 24.702802 Density  = 1.016066 
Volume   = 15074.351908 
---------------- Step  4780000 ----- CPU =   2450.2931 (sec) ----------------
Time     = 23900000.000000 Temp     = 213.657357 Press    = 1447.106463 
PotEng   = -10.512478 KinEng   = 0.635628 Lx       = 24.627339 
Ly       = 24.627339 Lz       = 24.627339 Density  = 1.025435 
Volume   = 14936.623891 
---------------- Step  4790000 ----- CPU =   2456.6450 (sec) ----------------
Time     = 23950000.000000 Temp     = 233.180971 Press    = 1366.855128 
PotEng   = -10.551667 KinEng   = 0.693711 Lx       = 24.711510 
Ly       = 24.711510 Lz       = 24.711510 Density  = 1.014992 
Volume   = 15090.298336 
---------------- Step  4800000 ----- CPU =   2463.0644 (sec) ----------------
Time     = 24000000.000000 Temp     = 227.238358 Press    = 973.072973 
PotEng   = -10.515218 KinEng   = 0.676031 Lx       = 24.657433 
Ly       = 24.657433 Lz       = 24.657433 Density  = 1.021685 
Volume   = 14991.448878 
---------------- Step  4810000 ----- CPU =   2469.4650 (sec) ----------------
Time     = 24050000.000000 Temp     = 222.426877 Press    = 79.573334 
PotEng   = -10.601824 KinEng   = 0.661717 Lx       = 24.750336 
Ly       = 24.750336 Lz       = 24.750336 Density  = 1.010223 
Volume   = 15161.539830 
---------------- Step  4820000 ----- CPU =   2475.8189 (sec) ----------------
Time     = 24100000.000000 Temp     = 221.024164 Press    = 1324.158267 
PotEng   = -10.594881 KinEng   = 0.657544 Lx       = 24.569201 
Ly       = 24.569201 Lz       = 24.569201 Density  = 1.032732 
Volume   = 14831.090640 
---------------- Step  4830000 ----- CPU =   2482.3250 (sec) ----------------
Time     = 24150000.000000 Temp     = 216.793138 Press    = 259.993362 
PotEng   = -10.508104 KinEng   = 0.644957 Lx       = 24.713523 
Ly       = 24.713523 Lz       = 24.713523 Density  = 1.014744 
Volume   = 15093.986586 
---------------- Step  4840000 ----- CPU =   2488.7641 (sec) ----------------
Time     = 24200000.000000 Temp     = 220.279718 Press    = 637.077262 
PotEng   = -10.521716 KinEng   = 0.655330 Lx       = 24.588931 
Ly       = 24.588931 Lz       = 24.588931 Density  = 1.030248 
Volume   = 14866.848617 
---------------- Step  4850000 ----- CPU =   2495.2321 (sec) ----------------
Time     = 24250000.000000 Temp     = 216.352819 Press    = 853.395426 
PotEng   = -10.445870 KinEng   = 0.643647 Lx       = 24.635068 
Ly       = 24.635068 Lz       = 24.635068 Density  = 1.024470 
Volume   = 14950.691604 
---------------- Step  4860000 ----- CPU =   2501.6216 (sec) ----------------
Time     = 24300000.000000 Temp     = 235.174730 Press    = 366.515284 
PotEng   = -10.545171 KinEng   = 0.699642 Lx       = 24.703669 
Ly       = 24.703669 Lz       = 24.703669 Density  = 1.015959 
Volume   = 15075.939448 
---------------- Step  4870000 ----- CPU =   2508.1311 (sec) ----------------
Time     = 24350000.000000 Temp     = 206.953373 Press    = 822.398929 
PotEng   = -10.534365 KinEng   = 0.615684 Lx       = 24.639424 
Ly       = 24.639424 Lz       = 24.639424 Density  = 1.023927 
Volume   = 14958.624358 
---------------- Step  4880000 ----- CPU =   2514.5827 (sec) ----------------
Time     = 24400000.000000 Temp     = 222.142581 Press    = 1098.315945 
PotEng   = -10.556165 KinEng   = 0.660872 Lx       = 24.654222 
Ly       = 24.654222 Lz       = 24.654222 Density  = 1.022084 
Volume   = 14985.591984 
---------------- Step  4890000 ----- CPU =   2520.9633 (sec) ----------------
Time     = 24450000.000000 Temp     = 213.586019 Press    = -2.076009 
PotEng   = -10.490667 KinEng   = 0.635416 Lx       = 24.711061 
Ly       = 24.711061 Lz       = 24.711061 Density  = 1.015047 
Volume   = 15089.477202 
---------------- Step  4900000 ----- CPU =   2527.4960 (sec) ----------------
Time     = 24500000.000000 Temp     = 228.581445 Press    = 615.935056 
PotEng   = -10.522488 KinEng   = 0.680027 Lx       = 24.724532 
Ly       = 24.724532 Lz       = 24.724532 Density  = 1.013389 
Volume   = 15114.168418 
---------------- Step  4910000 ----- CPU =   2533.9734 (sec) ----------------
Time     = 24550000.000000 Temp     = 228.912395 Press    = 1230.431551 
PotEng   = -10.503441 KinEng   = 0.681012 Lx       = 24.631880 
Ly       = 24.631880 Lz       = 24.631880 Density  = 1.024868 
Volume   = 14944.889295 
---------------- Step  4920000 ----- CPU =   2540.4400 (sec) ----------------
Time     = 24600000.000000 Temp     = 221.927316 Press    = 417.080887 
PotEng   = -10.536500 KinEng   = 0.660231 Lx       = 24.716202 
Ly       = 24.716202 Lz       = 24.716202 Density  = 1.014414 
Volume   = 15098.896080 
---------------- Step  4930000 ----- CPU =   2546.8396 (sec) ----------------
Time     = 24650000.000000 Temp     = 229.155190 Press    = 963.113303 
PotEng   = -10.529882 KinEng   = 0.681734 Lx       = 24.745091 
Ly       = 24.745091 Lz       = 24.745091 Density  = 1.010865 
Volume   = 15151.902704 
---------------- Step  4940000 ----- CPU =   2553.3301 (sec) ----------------
Time     = 24700000.000000 Temp     = 231.359227 Press    = 954.318727 
PotEng   = -10.540505 KinEng   = 0.688291 Lx       = 24.689553 
Ly       = 24.689553 Lz       = 24.689553 Density  = 1.017703 
Volume   = 15050.109837 
---------------- Step  4950000 ----- CPU =   2559.8659 (sec) ----------------
Time     = 24750000.000000 Temp     = 225.038511 Press    = 723.598938 
PotEng   = -10.546466 KinEng   = 0.669487 Lx       = 24.680461 
Ly       = 24.680461 Lz       = 24.680461 Density  = 1.018828 
Volume   = 15033.489637 
---------------- Step  4960000 ----- CPU =   2566.2455 (sec) ----------------
Time     = 24800000.000000 Temp     = 208.800407 Press    = 155.731305 
PotEng   = -10.612817 KinEng   = 0.621179 Lx       = 24.794630 
Ly       = 24.794630 Lz       = 24.794630 Density  = 1.004819 
Volume   = 15243.085437 
---------------- Step  4970000 ----- CPU =   2572.7312 (sec) ----------------
Time     = 24850000.000000 Temp     = 220.776007 Press    = 417.902905 
PotEng   = -10.569451 KinEng   = 0.656806 Lx       = 24.637135 
Ly       = 24.637135 Lz       = 24.637135 Density  = 1.024212 
Volume   = 14954.455718 
---------------- Step  4980000 ----- CPU =   2579.1849 (sec) ----------------
Time     = 24900000.000000 Temp     = 219.848965 Press    = -185.281997 
PotEng   = -10.541676 KinEng   = 0.654048 Lx       = 24.752034 
Ly       = 24.752034 Lz       = 24.752034 Density  = 1.010015 
Volume   = 15164.660084 
---------------- Step  4990000 ----- CPU =   2585.7682 (sec) ----------------
Time     = 24950000.000000 Temp     = 220.607378 Press    = 1526.331818 
PotEng   = -10.509394 KinEng   = 0.656304 Lx       = 24.541357 
Ly       = 24.541357 Lz       = 24.541357 Density  = 1.036251 
Volume   = 14780.724161 
---------------- Step  5000000 ----- CPU =   2592.2565 (sec) ----------------
Time     = 25000000.000000 Temp     = 223.606062 Press    = 538.800644 
PotEng   = -10.613951 KinEng   = 0.665225 Lx       = 24.681991 
Ly       = 24.681991 Lz       = 24.681991 Density  = 1.018638 
Volume   = 15036.284945 
Loop time of 2592.26 on 6 procs for 4000000 steps with 512 atoms

Performance: 666.601 ns/day, 0.036 hours/ns, 1543.057 timesteps/s
94.1% CPU use with 6 MPI tasks x no OpenMP threads

MPI task timing breakdown:
Section |  min time  |  avg time  |  max time  |%varavg| %total
---------------------------------------------------------------
Pair    | 2005.8     | 2056.2     | 2193       | 140.6 | 79.32
Neigh   | 49.015     | 50.059     | 53.228     |  21.1 |  1.93
Comm    | 288.03     | 421.87     | 477.75     | 308.6 | 16.27
Output  | 0.014243   | 0.023071   | 0.064681   |  12.3 |  0.00
Modify  | 47.987     | 52.688     | 56.883     |  47.7 |  2.03
Other   |            | 11.37      |            |       |  0.44

Nlocal:    85.3333 ave 90 max 82 min
Histogram: 1 0 2 1 0 0 1 0 0 1
Nghost:    577.167 ave 581 max 574 min
Histogram: 2 0 1 0 0 0 0 2 0 1
Neighs:    0 ave 0 max 0 min
Histogram: 6 0 0 0 0 0 0 0 0 0
FullNghs:  2873 ave 3041 max 2778 min
Histogram: 2 1 0 0 1 1 0 0 0 1

Total # of neighbors = 17238
Ave neighs/atom = 33.668
Neighbor list builds = 211416
Dangerous builds = 0

write_data data.final
Total wall time: 0:53:59
