mW.lmp - created by mBuild; units = real

512 atoms
0 bonds
0 angles
0 dihedrals
0 impropers

1 atom types

0.000000 24.858999 xlo xhi
0.000000 24.858999 ylo yhi
0.000000 24.858999 zlo zhi

Masses

1	18.015300	# cg water

Atoms

1	0	1	0.000000	4.976832	8.728992	20.528678
2	0	1	0.000000	17.310000	21.477705	9.026696
3	0	1	0.000000	12.836409	8.594862	14.150512
4	0	1	0.000000	0.983808	18.699007	10.617138
5	0	1	0.000000	17.113792	8.966215	10.764707
6	0	1	0.000000	16.031290	10.871924	19.235879
7	0	1	0.000000	22.857755	21.082626	10.660052
8	0	1	0.000000	8.594672	9.948835	12.162253
9	0	1	0.000000	20.503484	8.724786	1.974700
10	0	1	0.000000	2.585438	21.390844	0.584904
11	0	1	0.000000	0.554005	4.258659	2.426864
12	0	1	0.000000	6.757619	4.220557	1.051646
13	0	1	0.000000	4.109104	2.889483	6.987381
14	0	1	0.000000	22.854835	8.443218	1.049676
15	0	1	0.000000	13.603345	14.474745	1.062381
16	0	1	0.000000	14.212122	9.226851	18.458749
17	0	1	0.000000	5.868522	21.392032	3.845035
18	0	1	0.000000	6.809632	21.436366	18.056432
19	0	1	0.000000	2.004857	4.780815	10.161069
20	0	1	0.000000	17.705185	8.440092	0.024674
21	0	1	0.000000	5.910359	6.463365	13.060133
22	0	1	0.000000	3.222722	17.954897	11.124091
23	0	1	0.000000	11.038671	10.567374	21.034895
24	0	1	0.000000	13.808290	20.887486	15.186791
25	0	1	0.000000	19.609077	20.546541	4.134409
26	0	1	0.000000	7.617402	19.367052	20.650937
27	0	1	0.000000	5.817504	19.745998	7.416531
28	0	1	0.000000	2.189876	2.349445	20.530182
29	0	1	0.000000	18.575529	19.156241	8.711234
30	0	1	0.000000	20.839874	21.614134	15.515177
31	0	1	0.000000	17.152228	20.691579	13.055093
32	0	1	0.000000	15.862190	8.108980	22.910305
33	0	1	0.000000	5.537962	4.545893	20.086514
34	0	1	0.000000	14.951484	16.412133	0.290887
35	0	1	0.000000	2.495047	17.281354	0.314248
36	0	1	0.000000	4.126329	7.335983	5.826011
37	0	1	0.000000	14.875846	11.180066	10.587050
38	0	1	0.000000	5.101460	9.144877	10.743136
39	0	1	0.000000	3.747158	19.805342	5.202079
40	0	1	0.000000	20.926404	20.240110	19.840949
41	0	1	0.000000	1.588452	19.838343	6.109879
42	0	1	0.000000	7.526876	3.905558	3.886388
43	0	1	0.000000	6.945381	12.451147	0.774822
44	0	1	0.000000	10.622391	12.022778	19.308411
45	0	1	0.000000	22.544740	19.705733	7.611177
46	0	1	0.000000	11.924804	16.169044	10.594536
47	0	1	0.000000	14.070836	6.420007	9.790013
48	0	1	0.000000	20.552237	22.110401	18.493197
49	0	1	0.000000	16.639193	8.701026	14.488466
50	0	1	0.000000	0.724063	6.138695	6.616574
51	0	1	0.000000	1.312018	11.219484	4.492761
52	0	1	0.000000	17.090321	7.349630	12.459478
53	0	1	0.000000	5.018090	10.249788	16.920621
54	0	1	0.000000	22.480496	4.047106	6.307229
55	0	1	0.000000	11.643327	9.345655	3.517676
56	0	1	0.000000	2.451669	20.235567	11.189353
57	0	1	0.000000	20.300520	17.453856	13.539770
58	0	1	0.000000	13.888626	13.763043	3.367865
59	0	1	0.000000	19.426078	12.805573	19.292715
60	0	1	0.000000	0.003336	22.851518	0.000877
61	0	1	0.000000	6.692004	8.103902	21.936362
62	0	1	0.000000	18.743827	16.071967	16.414110
63	0	1	0.000000	16.519923	8.134881	20.811927
64	0	1	0.000000	6.760092	11.383268	15.706780
65	0	1	0.000000	9.956840	5.641922	14.345440
66	0	1	0.000000	5.845105	20.579316	21.850577
67	0	1	0.000000	8.790969	1.301978	21.967015
68	0	1	0.000000	4.325310	21.236825	17.752352
69	0	1	0.000000	5.092341	17.521569	0.708394
70	0	1	0.000000	9.265430	8.849475	21.153085
71	0	1	0.000000	9.317039	2.969652	14.263267
72	0	1	0.000000	14.553148	13.524116	13.397188
73	0	1	0.000000	21.094878	5.626655	10.582867
74	0	1	0.000000	22.334177	19.731970	21.749005
75	0	1	0.000000	19.469195	10.799275	9.203870
76	0	1	0.000000	19.917904	15.635040	1.433640
77	0	1	0.000000	4.273597	11.632414	21.112124
78	0	1	0.000000	19.761578	8.632200	9.933478
79	0	1	0.000000	13.415483	7.530975	7.687967
80	0	1	0.000000	15.314593	14.811150	16.691361
81	0	1	0.000000	12.816986	9.951744	11.729849
82	0	1	0.000000	2.992586	19.467618	14.093858
83	0	1	0.000000	13.535106	17.935406	18.553492
84	0	1	0.000000	8.160330	3.997422	9.508747
85	0	1	0.000000	18.256222	0.956235	3.925688
86	0	1	0.000000	15.592948	5.189508	15.663929
87	0	1	0.000000	16.893127	6.625251	16.707092
88	0	1	0.000000	9.811210	18.691245	0.412697
89	0	1	0.000000	7.165752	14.974386	6.155753
90	0	1	0.000000	13.122437	17.604075	2.399107
91	0	1	0.000000	19.245285	10.212320	0.371650
92	0	1	0.000000	18.728321	16.232990	21.641690
93	0	1	0.000000	17.463403	11.274668	12.014445
94	0	1	0.000000	12.046968	2.666354	12.119599
95	0	1	0.000000	10.767083	10.817313	17.399543
96	0	1	0.000000	12.562568	21.421042	1.109444
97	0	1	0.000000	20.741000	12.867170	8.789924
98	0	1	0.000000	20.411066	9.090104	20.684082
99	0	1	0.000000	2.572828	8.083098	20.824596
100	0	1	0.000000	6.228625	22.372959	12.394754
101	0	1	0.000000	22.412693	1.784743	19.095349
102	0	1	0.000000	9.162871	12.054772	12.959429
103	0	1	0.000000	10.195896	7.167986	19.506724
104	0	1	0.000000	22.321607	18.709680	3.213241
105	0	1	0.000000	17.670975	20.240747	15.682220
106	0	1	0.000000	1.138139	11.518363	13.571428
107	0	1	0.000000	9.617837	9.258458	10.341101
108	0	1	0.000000	19.546635	18.630438	11.828828
109	0	1	0.000000	17.841032	0.003904	2.016326
110	0	1	0.000000	17.938442	13.205694	11.071565
111	0	1	0.000000	0.967338	22.137015	2.076232
112	0	1	0.000000	21.718990	0.864240	3.783131
113	0	1	0.000000	8.406733	22.025186	12.427657
114	0	1	0.000000	3.823543	2.864794	15.568596
115	0	1	0.000000	20.976249	3.842389	20.572121
116	0	1	0.000000	21.049011	6.579406	2.859975
117	0	1	0.000000	0.002409	7.058478	8.564586
118	0	1	0.000000	3.699773	6.838833	11.548231
119	0	1	0.000000	13.196754	20.318890	18.530836
120	0	1	0.000000	10.685886	22.859407	16.374390
121	0	1	0.000000	0.540625	8.842362	22.628479
122	0	1	0.000000	18.824745	12.876848	15.056682
123	0	1	0.000000	2.521729	10.360736	21.505482
124	0	1	0.000000	12.109076	20.029961	20.769529
125	0	1	0.000000	22.377115	13.837947	22.255802
126	0	1	0.000000	20.306016	0.647343	8.268753
127	0	1	0.000000	20.452031	0.034049	1.894461
128	0	1	0.000000	2.060340	19.186296	2.326489
129	0	1	0.000000	22.727601	6.444880	0.078203
130	0	1	0.000000	17.963977	4.569278	16.915787
131	0	1	0.000000	9.941389	17.494139	2.830875
132	0	1	0.000000	13.177097	9.463257	22.856323
133	0	1	0.000000	6.004781	5.418012	15.035993
134	0	1	0.000000	11.253309	3.719258	15.006300
135	0	1	0.000000	18.370680	7.117231	21.640069
136	0	1	0.000000	17.567552	18.489701	20.742280
137	0	1	0.000000	4.539532	17.664984	7.970458
138	0	1	0.000000	3.953248	0.495151	1.681081
139	0	1	0.000000	22.560101	16.496789	5.723797
140	0	1	0.000000	5.063784	21.417253	10.019631
141	0	1	0.000000	2.167630	21.433961	15.099360
142	0	1	0.000000	9.428389	3.602208	0.208387
143	0	1	0.000000	2.122475	8.874936	1.470185
144	0	1	0.000000	10.627709	18.178364	10.483359
145	0	1	0.000000	1.149176	4.863700	4.874053
146	0	1	0.000000	3.314543	6.976570	22.855683
147	0	1	0.000000	20.012143	0.540203	18.729959
148	0	1	0.000000	13.920716	16.712535	12.100972
149	0	1	0.000000	2.854908	14.971711	15.763914
150	0	1	0.000000	5.484281	19.119157	10.256342
151	0	1	0.000000	10.688856	1.827298	3.748822
152	0	1	0.000000	15.489591	18.693017	11.473350
153	0	1	0.000000	17.044469	22.844988	17.884922
154	0	1	0.000000	18.253885	10.538969	13.931611
155	0	1	0.000000	13.215998	15.252980	19.414711
156	0	1	0.000000	15.394559	1.084123	16.393962
157	0	1	0.000000	14.169097	8.303003	21.195629
158	0	1	0.000000	17.735853	21.745374	6.682651
159	0	1	0.000000	13.417132	7.750344	12.082781
160	0	1	0.000000	17.403827	10.421168	22.855675
161	0	1	0.000000	12.357537	6.996392	4.399417
162	0	1	0.000000	15.293232	14.583694	9.984707
163	0	1	0.000000	16.020061	10.971611	4.244235
164	0	1	0.000000	16.771801	13.099783	13.241088
165	0	1	0.000000	0.684563	14.997558	16.883360
166	0	1	0.000000	5.747785	21.819161	14.738484
167	0	1	0.000000	14.126801	14.419486	5.965692
168	0	1	0.000000	16.962649	15.147094	7.461270
169	0	1	0.000000	7.022437	14.493580	3.804408
170	0	1	0.000000	21.871284	10.718430	20.444454
171	0	1	0.000000	19.952304	16.465430	5.124429
172	0	1	0.000000	8.549934	0.071624	6.491001
173	0	1	0.000000	0.555186	10.466131	19.626507
174	0	1	0.000000	3.565928	6.663988	13.770551
175	0	1	0.000000	11.650418	3.675113	0.034185
176	0	1	0.000000	15.784788	14.000986	4.526763
177	0	1	0.000000	0.007829	17.031997	4.183189
178	0	1	0.000000	12.165865	15.327530	21.415663
179	0	1	0.000000	4.333456	3.681143	13.295134
180	0	1	0.000000	17.464231	4.687628	1.994285
181	0	1	0.000000	10.416792	19.811901	16.495536
182	0	1	0.000000	17.292074	11.169607	8.866485
183	0	1	0.000000	7.101109	4.757327	17.198770
184	0	1	0.000000	21.536409	3.652829	8.306743
185	0	1	0.000000	0.048932	16.119951	1.891128
186	0	1	0.000000	10.427957	13.602815	0.302940
187	0	1	0.000000	15.029688	17.283976	8.376896
188	0	1	0.000000	22.854666	11.341569	13.394928
189	0	1	0.000000	4.099625	2.411377	18.303521
190	0	1	0.000000	1.890693	2.874576	17.317187
191	0	1	0.000000	12.344099	14.572841	16.894800
192	0	1	0.000000	11.214329	8.547416	8.176212
193	0	1	0.000000	16.804097	6.638996	8.758049
194	0	1	0.000000	7.559833	6.183314	19.985687
195	0	1	0.000000	9.913613	14.205544	10.776931
196	0	1	0.000000	7.096698	17.223814	13.401182
197	0	1	0.000000	15.311525	17.952696	16.863359
198	0	1	0.000000	19.402897	1.439156	5.824688
199	0	1	0.000000	1.795984	13.642619	5.754287
200	0	1	0.000000	3.714916	18.948281	16.146787
201	0	1	0.000000	5.346079	17.946692	14.754464
202	0	1	0.000000	7.034050	20.700502	5.752049
203	0	1	0.000000	14.441915	5.449271	11.906060
204	0	1	0.000000	18.855811	19.346546	13.857527
205	0	1	0.000000	15.560458	13.498383	1.962458
206	0	1	0.000000	11.722296	6.580709	13.394914
207	0	1	0.000000	10.568694	22.848424	14.177117
208	0	1	0.000000	8.082653	6.522368	13.410708
209	0	1	0.000000	4.866266	13.588717	4.304179
210	0	1	0.000000	12.707334	5.545111	1.288888
211	0	1	0.000000	10.253588	19.170828	13.726002
212	0	1	0.000000	10.174995	10.087119	14.927411
213	0	1	0.000000	19.782454	1.393545	10.977191
214	0	1	0.000000	0.016938	0.154329	15.542751
215	0	1	0.000000	18.767466	5.710425	3.513827
216	0	1	0.000000	2.233278	2.014721	3.760695
217	0	1	0.000000	0.878599	8.688248	15.754660
218	0	1	0.000000	15.509805	15.378667	18.843825
219	0	1	0.000000	1.717590	14.344331	8.122986
220	0	1	0.000000	16.698292	15.814117	5.381353
221	0	1	0.000000	13.838316	16.569518	6.481614
222	0	1	0.000000	13.628356	20.311674	4.664532
223	0	1	0.000000	3.591324	12.044634	7.494729
224	0	1	0.000000	8.318968	7.678292	18.448728
225	0	1	0.000000	10.331204	8.042034	12.517252
226	0	1	0.000000	19.120532	7.903705	13.522645
227	0	1	0.000000	4.290521	5.261223	17.834263
228	0	1	0.000000	14.956943	2.623971	8.626900
229	0	1	0.000000	11.811640	5.975928	8.747084
230	0	1	0.000000	17.744639	20.090484	22.349739
231	0	1	0.000000	18.260649	9.952289	3.450826
232	0	1	0.000000	14.595145	20.553617	12.442603
233	0	1	0.000000	7.463358	1.977076	1.326209
234	0	1	0.000000	14.484354	18.342331	5.340629
235	0	1	0.000000	19.994616	21.565187	7.904597
236	0	1	0.000000	15.674576	11.029824	14.162008
237	0	1	0.000000	7.855556	19.507653	18.219631
238	0	1	0.000000	17.232879	17.651545	18.725299
239	0	1	0.000000	20.205065	10.632182	12.709718
240	0	1	0.000000	6.473033	12.034350	9.829596
241	0	1	0.000000	15.677068	22.701130	20.040762
242	0	1	0.000000	22.157947	7.727694	13.256093
243	0	1	0.000000	5.555670	3.080698	3.360680
244	0	1	0.000000	22.717602	18.387857	12.709369
245	0	1	0.000000	8.335107	17.859471	11.138531
246	0	1	0.000000	12.087811	17.784922	21.922179
247	0	1	0.000000	13.113394	16.349623	15.849749
248	0	1	0.000000	8.318464	7.115729	11.303118
249	0	1	0.000000	0.006384	1.900390	4.387602
250	0	1	0.000000	9.932477	5.865873	12.147734
251	0	1	0.000000	11.884710	2.732472	17.280699
252	0	1	0.000000	13.338264	0.846754	8.624403
253	0	1	0.000000	19.664961	22.858586	3.722939
254	0	1	0.000000	18.921552	14.160960	7.285189
255	0	1	0.000000	22.160016	11.360525	1.149312
256	0	1	0.000000	12.240521	4.520465	20.577288
257	0	1	0.000000	21.103542	15.520637	7.319462
258	0	1	0.000000	19.262215	3.260376	2.129895
259	0	1	0.000000	20.871731	10.559927	6.054627
260	0	1	0.000000	7.070187	17.596393	5.717397
261	0	1	0.000000	5.299063	17.138435	11.854505
262	0	1	0.000000	9.744823	0.907126	15.763328
263	0	1	0.000000	6.095728	0.852014	2.631688
264	0	1	0.000000	19.131520	12.412884	5.660186
265	0	1	0.000000	18.179212	10.341072	20.856648
266	0	1	0.000000	9.579078	9.413824	19.049486
267	0	1	0.000000	10.128239	8.705313	0.473846
268	0	1	0.000000	15.297746	2.699651	14.903719
269	0	1	0.000000	7.992739	4.298015	15.080449
270	0	1	0.000000	7.980894	10.298812	8.731686
271	0	1	0.000000	11.768111	11.521816	3.861383
272	0	1	0.000000	16.589049	20.443237	18.337144
273	0	1	0.000000	1.707772	6.902965	4.264708
274	0	1	0.000000	17.913276	3.948460	4.553167
275	0	1	0.000000	12.328920	6.058337	11.126981
276	0	1	0.000000	18.854769	4.318300	8.332744
277	0	1	0.000000	5.447085	16.866433	22.202677
278	0	1	0.000000	22.453517	16.894765	1.098401
279	0	1	0.000000	20.270729	2.974480	17.372799
280	0	1	0.000000	21.091023	20.401956	13.662237
281	0	1	0.000000	2.052622	4.605550	14.748660
282	0	1	0.000000	2.789207	14.682283	18.145732
283	0	1	0.000000	16.019460	22.856570	22.491479
284	0	1	0.000000	1.520867	6.997458	10.113522
285	0	1	0.000000	13.817752	6.348821	17.908695
286	0	1	0.000000	10.703020	4.960389	2.550069
287	0	1	0.000000	0.003270	3.116463	21.353411
288	0	1	0.000000	3.948015	21.832915	6.673403
289	0	1	0.000000	15.817624	20.696479	10.608831
290	0	1	0.000000	4.192447	17.339816	5.814414
291	0	1	0.000000	7.056980	11.855869	22.533227
292	0	1	0.000000	6.661888	19.052875	0.889358
293	0	1	0.000000	14.180371	7.225487	0.810103
294	0	1	0.000000	18.169127	4.726450	13.131338
295	0	1	0.000000	22.823080	0.338420	8.039855
296	0	1	0.000000	15.594918	16.721346	10.495634
297	0	1	0.000000	12.713896	0.459977	0.913125
298	0	1	0.000000	0.356214	19.388145	0.055750
299	0	1	0.000000	0.873604	1.206051	8.424744
300	0	1	0.000000	17.036123	20.725129	2.256433
301	0	1	0.000000	15.759190	19.452659	0.098699
302	0	1	0.000000	9.658840	2.433972	12.147833
303	0	1	0.000000	4.773173	13.141438	11.850524
304	0	1	0.000000	9.122577	0.395300	10.610705
305	0	1	0.000000	22.697495	13.861170	8.948703
306	0	1	0.000000	14.792615	15.870959	3.888692
307	0	1	0.000000	6.991097	8.339427	12.642320
308	0	1	0.000000	11.344274	1.095362	10.737482
309	0	1	0.000000	20.114308	9.099676	4.274253
310	0	1	0.000000	17.500520	4.953592	21.624987
311	0	1	0.000000	11.635354	6.751232	17.623377
312	0	1	0.000000	11.918577	12.718758	5.937226
313	0	1	0.000000	21.065265	2.194111	13.389356
314	0	1	0.000000	0.499598	13.560433	2.875153
315	0	1	0.000000	7.967463	13.216469	16.217643
316	0	1	0.000000	3.161892	22.828051	21.034016
317	0	1	0.000000	10.323176	4.370750	10.355826
318	0	1	0.000000	8.676866	0.609819	19.828900
319	0	1	0.000000	14.322628	12.381561	5.064132
320	0	1	0.000000	8.638142	3.341532	5.755153
321	0	1	0.000000	5.912147	8.202602	14.564396
322	0	1	0.000000	12.808252	8.802171	5.652388
323	0	1	0.000000	11.680670	8.404827	16.028467
324	0	1	0.000000	13.335795	4.639698	15.063156
325	0	1	0.000000	0.323819	0.659468	19.565829
326	0	1	0.000000	8.211158	7.816389	4.640109
327	0	1	0.000000	17.908805	22.245819	19.817309
328	0	1	0.000000	14.251175	10.636788	21.195246
329	0	1	0.000000	11.342573	11.863771	12.729474
330	0	1	0.000000	10.800942	2.218324	6.100049
331	0	1	0.000000	20.803793	5.391104	5.261164
332	0	1	0.000000	21.153952	3.098470	4.044085
333	0	1	0.000000	14.324132	22.329148	10.676234
334	0	1	0.000000	13.154695	15.252218	13.557432
335	0	1	0.000000	12.385681	20.414711	22.855457
336	0	1	0.000000	6.375253	15.147901	10.947815
337	0	1	0.000000	19.649824	18.225846	3.251383
338	0	1	0.000000	4.498616	16.567690	9.877404
339	0	1	0.000000	18.482453	2.403081	12.998984
340	0	1	0.000000	2.234897	12.769418	15.668645
341	0	1	0.000000	9.653888	7.520870	16.697865
342	0	1	0.000000	3.809002	17.736819	20.807347
343	0	1	0.000000	17.743158	17.092710	10.197650
344	0	1	0.000000	17.540560	12.313635	3.215544
345	0	1	0.000000	10.835942	4.170919	7.358371
346	0	1	0.000000	-0.042452	12.815317	4.873955
347	0	1	0.000000	3.930762	5.662615	8.208491
348	0	1	0.000000	10.780265	16.033842	16.006110
349	0	1	0.000000	3.677361	0.743477	4.828227
350	0	1	0.000000	6.718612	16.408952	1.713839
351	0	1	0.000000	16.065163	13.122714	0.008338
352	0	1	0.000000	22.012205	15.268235	2.915412
353	0	1	0.000000	12.467015	22.101985	17.420926
354	0	1	0.000000	9.783822	7.256153	22.857557
355	0	1	0.000000	15.758774	13.329115	19.686804
356	0	1	0.000000	21.151801	16.171752	11.477544
357	0	1	0.000000	7.726825	1.766895	9.338304
358	0	1	0.000000	4.895914	1.296755	21.895549
359	0	1	0.000000	11.213629	16.567494	13.633051
360	0	1	0.000000	9.112245	2.910744	2.517911
361	0	1	0.000000	21.615129	12.485747	4.329878
362	0	1	0.000000	14.670947	8.955394	10.675091
363	0	1	0.000000	14.524079	5.077606	7.347451
364	0	1	0.000000	8.869672	15.549309	17.164000
365	0	1	0.000000	17.433350	22.305871	11.491465
366	0	1	0.000000	19.235463	20.784027	12.221000
367	0	1	0.000000	7.674426	6.240133	22.857804
368	0	1	0.000000	18.172212	15.608833	13.519433
369	0	1	0.000000	16.274792	13.094700	8.266861
370	0	1	0.000000	15.989819	15.080461	12.151924
371	0	1	0.000000	13.065972	13.192977	21.618399
372	0	1	0.000000	0.618929	10.262207	2.279934
373	0	1	0.000000	2.047400	0.299018	21.456352
374	0	1	0.000000	13.142178	4.067975	9.652703
375	0	1	0.000000	9.538040	20.387779	9.344379
376	0	1	0.000000	6.108911	16.765270	16.770703
377	0	1	0.000000	1.288168	18.461543	12.783532
378	0	1	0.000000	8.907887	19.726219	6.743373
379	0	1	0.000000	14.625000	11.610718	8.337330
380	0	1	0.000000	1.337497	7.928145	17.773696
381	0	1	0.000000	14.423007	1.633437	1.998275
382	0	1	0.000000	12.448257	8.470348	10.130450
383	0	1	0.000000	21.394161	21.476713	5.256505
384	0	1	0.000000	8.101056	22.559798	14.539689
385	0	1	0.000000	5.843251	18.177200	18.470149
386	0	1	0.000000	10.939312	13.445572	21.116744
387	0	1	0.000000	20.705419	5.695561	0.514551
388	0	1	0.000000	8.711034	10.847862	16.603246
389	0	1	0.000000	4.080300	9.864865	5.276657
390	0	1	0.000000	8.194252	17.747036	22.023488
391	0	1	0.000000	11.750884	2.363676	20.355619
392	0	1	0.000000	4.037997	3.862442	1.373765
393	0	1	0.000000	3.816699	16.984580	17.295388
394	0	1	0.000000	14.090277	12.987233	16.813583
395	0	1	0.000000	3.802544	7.295686	15.878405
396	0	1	0.000000	10.079429	20.736683	11.794090
397	0	1	0.000000	12.420689	12.348901	1.388138
398	0	1	0.000000	4.222930	17.706035	3.445466
399	0	1	0.000000	6.838283	2.414932	15.175784
400	0	1	0.000000	6.026258	3.165888	9.201331
401	0	1	0.000000	1.063490	17.892649	17.481855
402	0	1	0.000000	3.370799	6.536596	2.001432
403	0	1	0.000000	11.357442	2.348963	8.490587
404	0	1	0.000000	16.621445	3.313238	20.188639
405	0	1	0.000000	12.376990	2.406254	2.342137
406	0	1	0.000000	16.048101	9.019395	5.366612
407	0	1	0.000000	3.575176	6.701984	19.402782
408	0	1	0.000000	20.363319	5.696942	19.559385
409	0	1	0.000000	9.879282	12.768541	2.287322
410	0	1	0.000000	10.239822	4.326358	22.130925
411	0	1	0.000000	22.157185	2.227469	2.081895
412	0	1	0.000000	2.919700	13.392045	19.970097
413	0	1	0.000000	20.513701	15.722392	15.001361
414	0	1	0.000000	5.514627	11.120676	8.072571
415	0	1	0.000000	3.208846	12.051407	5.235548
416	0	1	0.000000	11.910820	1.747961	14.114254
417	0	1	0.000000	18.314659	1.829111	0.753424
418	0	1	0.000000	1.514316	1.213189	14.679955
419	0	1	0.000000	19.126007	13.684465	12.860649
420	0	1	0.000000	13.560664	1.004601	11.032278
421	0	1	0.000000	5.567208	9.008740	6.791710
422	0	1	0.000000	5.935682	20.222707	13.138786
423	0	1	0.000000	21.481295	2.038083	6.250490
424	0	1	0.000000	2.236799	16.289745	2.263671
425	0	1	0.000000	6.727534	10.975539	13.333555
426	0	1	0.000000	17.812720	5.641204	11.029105
427	0	1	0.000000	14.868169	3.171864	11.064639
428	0	1	0.000000	2.038919	12.853949	11.912622
429	0	1	0.000000	2.348988	15.413193	4.278715
430	0	1	0.000000	9.334863	4.470528	19.503394
431	0	1	0.000000	20.046723	9.140408	17.277411
432	0	1	0.000000	2.504147	3.805758	12.079208
433	0	1	0.000000	15.936161	1.757546	12.976708
434	0	1	0.000000	6.035359	12.927363	14.195982
435	0	1	0.000000	18.157844	5.820945	0.151176
436	0	1	0.000000	21.356477	12.831711	18.215637
437	0	1	0.000000	4.062473	14.977750	20.993117
438	0	1	0.000000	7.508577	21.147684	9.724601
439	0	1	0.000000	9.897767	13.607453	17.275771
440	0	1	0.000000	6.611082	2.531954	17.375259
441	0	1	0.000000	9.403652	1.662677	7.747871
442	0	1	0.000000	3.025342	9.416658	12.117597
443	0	1	0.000000	20.052378	22.856983	10.142621
444	0	1	0.000000	3.722624	13.065302	13.953280
445	0	1	0.000000	22.232590	0.292070	10.359206
446	0	1	0.000000	17.197115	0.230600	6.494802
447	0	1	0.000000	10.379420	20.832377	5.419929
448	0	1	0.000000	22.789290	22.014904	13.656692
449	0	1	0.000000	19.589356	15.864017	9.576903
450	0	1	0.000000	9.404031	7.307244	8.005502
451	0	1	0.000000	12.893211	0.894918	4.488891
452	0	1	0.000000	6.999852	18.660545	3.695911
453	0	1	0.000000	5.877901	6.763676	16.785003
454	0	1	0.000000	2.880848	4.145825	19.344142
455	0	1	0.000000	12.777471	21.578247	7.480711
456	0	1	0.000000	20.083420	22.857450	20.746496
457	0	1	0.000000	6.961509	11.339778	5.760173
458	0	1	0.000000	22.123088	17.235291	14.794430
459	0	1	0.000000	19.285455	4.298195	22.732031
460	0	1	0.000000	18.984279	14.451720	4.846682
461	0	1	0.000000	11.575798	8.434246	20.869583
462	0	1	0.000000	9.998430	17.904513	19.574128
463	0	1	0.000000	17.614140	7.078908	5.333561
464	0	1	0.000000	4.532193	1.467950	10.553597
465	0	1	0.000000	1.414007	16.685638	14.364636
466	0	1	0.000000	14.094284	18.373267	14.971720
467	0	1	0.000000	12.546983	6.802322	19.653085
468	0	1	0.000000	16.370712	6.556147	1.341209
469	0	1	0.000000	20.929875	19.842370	10.507184
470	0	1	0.000000	3.979659	3.434380	21.207533
471	0	1	0.000000	9.834535	15.348025	21.098037
472	0	1	0.000000	8.517004	14.492001	2.167027
473	0	1	0.000000	8.602358	22.612222	6.737230
474	0	1	0.000000	11.041375	4.695020	4.707774
475	0	1	0.000000	15.926390	1.215106	21.987452
476	0	1	0.000000	5.371036	9.891000	22.493049
477	0	1	0.000000	21.858373	9.080426	11.284768
478	0	1	0.000000	0.001766	5.430469	16.981189
479	0	1	0.000000	19.004825	21.452316	17.072989
480	0	1	0.000000	17.491997	6.671224	14.518218
481	0	1	0.000000	10.549614	20.215726	2.390397
482	0	1	0.000000	18.379091	15.199612	18.406279
483	0	1	0.000000	2.730597	5.267502	21.656509
484	0	1	0.000000	17.067377	11.910408	6.259486
485	0	1	0.000000	11.853426	10.634380	7.901143
486	0	1	0.000000	4.121297	22.639418	13.504165
487	0	1	0.000000	13.011067	12.421461	18.799185
488	0	1	0.000000	4.668509	8.818842	3.313038
489	0	1	0.000000	14.315881	6.614412	14.057495
490	0	1	0.000000	12.874168	18.425252	10.878728
491	0	1	0.000000	22.083464	14.920301	13.675976
492	0	1	0.000000	17.148599	12.309610	16.364307
493	0	1	0.000000	21.610401	12.146347	15.196278
494	0	1	0.000000	13.729063	10.471311	3.752309
495	0	1	0.000000	9.658276	20.217365	21.851579
496	0	1	0.000000	1.650193	0.004353	17.923640
497	0	1	0.000000	20.120350	14.086700	10.788646
498	0	1	0.000000	6.972342	0.794902	5.041372
499	0	1	0.000000	14.584916	16.334531	22.424400
500	0	1	0.000000	6.571821	13.234656	19.764273
501	0	1	0.000000	3.816844	0.003608	18.340607
502	0	1	0.000000	2.114536	9.735629	7.776838
503	0	1	0.000000	1.390087	6.235999	13.168584
504	0	1	0.000000	2.839663	9.291271	16.907016
505	0	1	0.000000	0.024589	0.002450	0.113373
506	0	1	0.000000	4.833256	15.187945	7.879998
507	0	1	0.000000	17.481072	18.236713	16.618573
508	0	1	0.000000	10.857365	18.849622	7.916631
509	0	1	0.000000	0.000112	8.994685	7.519277
510	0	1	0.000000	15.943290	3.987237	3.471745
511	0	1	0.000000	18.771290	5.282659	6.160136
512	0	1	0.000000	1.438399	15.590193	10.551653
