ITEM: TIMESTEP
1000
ITEM: NUMBER OF ATOMS
512
ITEM: BOX BOUNDS pp pp pp
-1.3768350928108575e-02 2.4848768350859530e+01
-1.3768350928108575e-02 2.4848768350859530e+01
-1.3768350928108575e-02 2.4848768350859530e+01
ITEM: ATOMS id type fx fy fz 
1 1 1.932268 -4.121534 3.016975 
2 1 -1.080582 -0.8920574 -0.5965737 
3 1 -2.711834 0.9849734 -1.582723 
4 1 1.197747 -0.9908524 -1.454043 
5 1 -7.154054 -1.902944 -3.586797 
6 1 0.1861222 -2.538485 2.347519 
7 1 1.750382 1.60691 -6.853324 
8 1 1.351353 4.803125 -0.4169086 
9 1 -3.38182 -6.006859 -1.528502 
10 1 3.693623 -1.148831 -0.7151185 
11 1 3.823637 5.38803 3.66739 
12 1 0.3897165 1.1294 -4.218609 
13 1 3.859053 -0.567065 2.256371 
14 1 0.9612124 -7.167366 -4.99735 
15 1 -0.7500468 -2.02441 -0.2071426 
16 1 2.640105 -6.058115 -8.541356 
17 1 0.7484118 1.89732 0.02396104 
18 1 -8.231986 8.074426 -8.766148 
19 1 1.945612 2.078791 3.926007 
20 1 -2.117714 -1.997057 1.794288 
21 1 0.6179435 -1.674547 -3.558879 
22 1 2.762931 -1.961203 3.726621 
23 1 -6.0586 -0.09069493 -7.933077 
24 1 -3.814184 -1.222046 -1.326378 
25 1 0.8649991 1.496358 -2.054877 
26 1 -1.873192 -2.027158 0.6372671 
27 1 -2.93565 0.1294629 -3.773145 
28 1 2.080262 8.146167 4.36674 
29 1 -4.53064 1.076838 -1.819724 
30 1 -3.051481 6.628709 -7.266153 
31 1 -2.875006 -0.1467402 -4.955709 
32 1 5.2029 5.204491 -3.341577 
33 1 1.006713 -4.63563 2.134439 
34 1 3.856445 -4.684291 -0.4314229 
35 1 -1.766193 -0.2123554 -2.655593 
36 1 2.427407 -1.394681 5.459798 
37 1 -6.269161 -10.42204 -2.822958 
38 1 4.174837 -1.260966 -9.260964 
39 1 3.159906 0.7886404 -1.017373 
40 1 2.173961 -2.677072 0.285839 
41 1 0.2845439 2.943347 0.3172079 
42 1 1.625837 0.8657413 2.84503 
43 1 1.406223 3.182136 4.05387 
44 1 -0.4190048 6.384472 3.308639 
45 1 1.555308 1.539332 -0.890656 
46 1 -0.03897757 -1.585836 2.313711 
47 1 2.149573 -2.918955 -2.05939 
48 1 -0.5529966 5.013141 -2.774828 
49 1 -2.668096 -1.476771 3.918385 
50 1 -2.753095 -2.725183 1.249675 
51 1 4.168044 2.948829 4.211251 
52 1 6.242628 -3.747823 -0.9781926 
53 1 -4.698191 0.2731647 0.002433919 
54 1 0.719258 1.027495 -4.027687 
55 1 -0.3091566 -4.047586 4.05281 
56 1 -12.81605 -5.864146 -2.10002 
57 1 -6.401546 2.269498 1.802081 
58 1 2.817176 2.513381 -3.991341 
59 1 0.9729809 0.7522744 -5.102484 
60 1 -6.8036 1.827634 3.183538 
61 1 4.357584 0.6559301 -0.6440278 
62 1 -6.339251 -3.082801 3.107012 
63 1 1.680102 2.512659 -3.122158 
64 1 -1.976065 -3.877566 -1.149222 
65 1 -0.05216923 0.2940314 2.350085 
66 1 -1.472593 -6.489119 4.348293 
67 1 1.402088 0.3869678 0.9644825 
68 1 4.186177 0.7416848 4.364798 
69 1 -1.657225 7.078876 -1.400655 
70 1 -0.1381151 -2.913807 0.5719991 
71 1 3.552257 3.114178 0.1370358 
72 1 2.475508 2.716954 6.069004 
73 1 3.407263 -1.175826 1.966509 
74 1 -1.523219 0.5173358 -1.859026 
75 1 -2.427286 4.088281 2.752375 
76 1 -3.745653 -3.022108 3.852157 
77 1 -1.314521 -1.047139 3.943906 
78 1 3.046431 0.4840837 -0.5214941 
79 1 4.418978 -1.006532 0.005973375 
80 1 5.912868 -3.763144 -5.685227 
81 1 3.33993 3.156906 -0.789623 
82 1 -3.346935 3.366909 1.019769 
83 1 3.116662 -1.012162 2.648113 
84 1 2.29006 -2.181803 -5.319243 
85 1 4.090232 -1.561127 5.249185 
86 1 0.1895197 3.422643 4.80599 
87 1 2.33625 -2.235097 -3.272193 
88 1 3.654449 -2.168376 2.128625 
89 1 -1.727252 -3.304467 -2.555008 
90 1 0.1324494 3.546432 8.715782 
91 1 -5.253015 -1.140686 -3.345269 
92 1 8.116612 -1.980852 -3.029451 
93 1 -1.662028 0.4276164 -1.325206 
94 1 3.527176 0.5133536 2.183766 
95 1 -0.2185039 -5.241048 2.780958 
96 1 0.9151308 5.300405 -1.85636 
97 1 -3.677125 2.095766 -5.243702 
98 1 0.0456448 1.728117 -1.267405 
99 1 -2.010623 -3.744171 1.723176 
100 1 10.84504 4.35111 1.354891 
101 1 4.128244 -7.491946 9.439591 
102 1 1.96527 -0.3224091 -5.122642 
103 1 -3.250259 -1.611963 -0.891801 
104 1 -0.01504423 -5.271533 3.774735 
105 1 7.028401 -1.854516 11.03158 
106 1 -1.768457 0.461523 0.2176113 
107 1 3.694542 9.251291 6.069294 
108 1 -3.371165 0.03435903 -3.158735 
109 1 -2.118066 2.443378 -2.332299 
110 1 8.596313 0.8523711 5.228686 
111 1 -1.79871 -1.424915 0.789252 
112 1 -1.30853 -0.4051473 1.75121 
113 1 3.971746 3.674741 -0.9054118 
114 1 3.86177 -3.727997 -1.181229 
115 1 -3.377448 3.99191 0.8124224 
116 1 -2.329972 -0.9150467 -0.5495215 
117 1 1.002907 6.29063 -4.488994 
118 1 -1.212836 0.9516319 1.306627 
119 1 3.822732 0.6571019 0.8672575 
120 1 1.188607 -2.095128 2.414786 
121 1 -3.416775 1.30049 2.522133 
122 1 -0.1033707 3.542368 -2.325269 
123 1 3.747493 -6.5321 0.06666785 
124 1 -0.8881177 6.883416 0.1634026 
125 1 5.689891 5.906805 10.09118 
126 1 1.794648 0.4851415 -3.910231 
127 1 2.793988 -2.578298 1.037739 
128 1 -1.04415 5.317342 0.06925741 
129 1 2.504956 -5.321767 -1.234259 
130 1 4.208137 5.510901 -7.323654 
131 1 -1.570208 -0.7922153 1.966404 
132 1 -4.204606 -8.672036 1.931664 
133 1 0.0510448 1.907037 1.826782 
134 1 1.657159 4.987871 7.658943 
135 1 2.671765 -2.597108 1.884775 
136 1 -1.199735 3.953492 -2.892052 
137 1 7.877899 -4.849603 -3.677242 
138 1 -5.638312 -9.274854 2.113526 
139 1 6.307364 2.187941 -1.106966 
140 1 -2.489159 6.466612 1.075747 
141 1 -5.462119 1.810681 -0.4032751 
142 1 -1.354292 0.5342499 -0.1636914 
143 1 -5.762289 -1.355731 -1.733833 
144 1 -0.2873434 -2.091352 -0.577168 
145 1 -2.988541 6.320768 16.15042 
146 1 1.451114 1.058911 7.819918 
147 1 -2.477286 1.285165 -4.514347 
148 1 -0.6587083 -5.242727 -2.476018 
149 1 0.6591655 -1.85903 2.664252 
150 1 -2.535933 0.3326367 2.449877 
151 1 2.329564 -5.386265 6.723481 
152 1 0.09217105 -4.815143 2.136379 
153 1 1.474287 -5.340304 -6.415194 
154 1 8.556565 6.87148 5.660157 
155 1 -5.673198 -2.610383 5.6861 
156 1 1.679148 -3.910357 -4.015066 
157 1 0.4207523 -0.7022815 -1.287593 
158 1 0.6470047 0.4412247 -0.1160086 
159 1 -0.03058818 5.080288 -9.654989 
160 1 -3.012967 2.779891 0.7537643 
161 1 -2.011008 -1.672271 -3.759447 
162 1 -0.7347386 -4.598734 -2.783809 
163 1 0.2370336 -5.454672 -0.8370233 
164 1 -1.473487 -4.768399 -8.929302 
165 1 4.101609 -3.851624 5.207062 
166 1 1.280742 -3.826823 3.616965 
167 1 -2.332327 -1.849337 -0.1068416 
168 1 -0.3155721 4.255638 -5.465166 
169 1 7.086915 -3.251045 -4.835745 
170 1 -1.518164 -4.253043 -0.8039875 
171 1 -5.438312 4.790692 -7.064371 
172 1 1.597999 2.111662 3.720152 
173 1 -1.145131 4.856178 -5.329603 
174 1 -6.366375 -4.915996 2.242018 
175 1 -4.652604 -1.592525 -4.273683 
176 1 2.055012 3.676505 -5.409272 
177 1 4.544118 -2.502214 3.660261 
178 1 -1.5437 0.8441864 -5.673863 
179 1 -0.8612973 -1.458712 -2.002157 
180 1 -1.870222 1.718703 -4.296845 
181 1 1.74059 2.076184 3.247883 
182 1 -3.521499 -0.5774273 4.717997 
183 1 -3.480795 0.06590507 1.06535 
184 1 4.446415 -3.264322 8.432389 
185 1 -0.2917358 5.872064 -1.029995 
186 1 -5.46366 2.218744 -1.282464 
187 1 -3.228813 -4.676529 2.332173 
188 1 -6.291144 -1.115082 -0.4051345 
189 1 2.975705 -4.78752 0.5729935 
190 1 3.400766 -2.832436 -2.735188 
191 1 1.045827 4.091573 -4.924004 
192 1 -1.163198 1.813606 0.02309735 
193 1 -1.453343 -2.301477 4.328386 
194 1 1.487436 1.853397 2.692141 
195 1 -7.156418 -1.375008 -2.865866 
196 1 -2.824357 1.823766 -0.02770413 
197 1 7.917316 0.3740255 -0.2343839 
198 1 3.650381 -1.826303 -0.278367 
199 1 6.652185 -2.09062 -0.2311923 
200 1 -0.9954977 -1.809637 2.670739 
201 1 4.69631 -1.554971 -4.140929 
202 1 3.199119 -0.8285667 -4.102061 
203 1 -1.627849 -4.670545 2.09471 
204 1 -4.883306 0.2234334 -3.504749 
205 1 -4.734308 2.20568 2.928377 
206 1 -6.681929 0.6689474 -4.093796 
207 1 2.545648 4.35121 1.860233 
208 1 3.919595 -1.957907 1.421551 
209 1 -7.050712 2.125238 -6.179949 
210 1 -5.666827 2.350271 -1.237964 
211 1 -2.229905 -3.681098 -11.22546 
212 1 -1.075245 -0.4105857 3.792533 
213 1 0.02726034 3.527997 1.284479 
214 1 -1.201146 5.334407 -0.9064876 
215 1 -2.873106 -0.6114168 -3.046941 
216 1 8.646356 7.35912 -5.745882 
217 1 7.73246 -3.612703 -5.121209 
218 1 -2.514449 0.6679631 2.571036 
219 1 1.427173 -0.8479543 3.476338 
220 1 -0.2753323 -3.803362 3.046392 
221 1 1.014725 -1.049707 -0.6008732 
222 1 0.3361693 -4.300094 1.268877 
223 1 -3.168573 -0.5308086 0.1989122 
224 1 -1.875743 -6.931884 4.570665 
225 1 -5.162781 -5.242072 -0.9928736 
226 1 8.348117 2.408305 -2.223625 
227 1 2.573445 -3.119408 -6.018343 
228 1 1.397774 -0.135155 -1.794872 
229 1 -3.311313 -1.208766 2.766972 
230 1 1.116013 -3.951713 0.5916341 
231 1 -1.321543 1.822211 -0.01865036 
232 1 -1.227512 0.970905 -3.417207 
233 1 0.4223767 3.132793 -2.929614 
234 1 4.476374 -2.300057 5.05385 
235 1 4.336417 -1.952753 -3.378188 
236 1 2.702465 0.8822738 -9.036857 
237 1 -3.231027 -2.676765 3.89449 
238 1 0.1020055 1.65617 -0.7748497 
239 1 -2.040754 4.550027 0.5123272 
240 1 -5.517008 -4.567474 -0.2768888 
241 1 -6.940213 -2.74649 0.6806631 
242 1 -0.8441213 -1.432104 0.07537671 
243 1 -3.894883 1.529498 4.023294 
244 1 5.959515 -0.5062282 2.279258 
245 1 -4.955668 6.610267 8.830361 
246 1 1.582485 1.335173 4.05273 
247 1 3.616291 0.155007 4.192137 
248 1 -1.045467 7.672794 7.079029 
249 1 3.793822 -1.382224 -2.098027 
250 1 3.503679 6.291082 -1.378475 
251 1 -0.5134982 0.3964783 0.5000684 
252 1 2.706846 4.060771 2.352865 
253 1 -0.7233806 1.918875 -1.619761 
254 1 10.70407 1.051323 -3.181332 
255 1 -0.9084034 -2.736096 -0.680798 
256 1 -6.080538 5.128993 -1.282293 
257 1 0.3626455 -10.01829 -2.5748 
258 1 1.024678 -1.970498 -2.226269 
259 1 2.915622 2.422704 7.21078 
260 1 -1.057258 4.309922 4.320703 
261 1 2.885538 0.8006462 2.049175 
262 1 -0.164108 -3.778436 -1.76595 
263 1 2.564573 -2.168485 -9.053934 
264 1 2.164142 -3.408244 0.4126003 
265 1 -0.4911775 6.031302 0.608001 
266 1 0.6918622 1.480079 -2.578446 
267 1 2.030225 -3.63602 -0.8379905 
268 1 4.200341 1.943524 -0.7623055 
269 1 -3.964828 0.05138593 -0.5695329 
270 1 1.729365 4.079116 3.215205 
271 1 5.15924 5.794298 1.775991 
272 1 0.592243 1.967836 1.813484 
273 1 -0.9455567 1.653105 1.13009 
274 1 -0.8325161 -6.192758 3.468836 
275 1 0.4484496 -0.5166814 -4.388362 
276 1 2.800309 -3.430847 4.25362 
277 1 2.021101 5.601998 2.82641 
278 1 4.736671 2.42927 -1.437245 
279 1 5.608596 -3.401188 -2.398602 
280 1 1.948435 0.5421628 0.6001054 
281 1 3.269995 2.634597 -1.728146 
282 1 -1.258023 -3.043866 2.186257 
283 1 -3.883466 8.418594 2.045689 
284 1 -3.673842 -6.464983 -4.632217 
285 1 -0.01731113 -0.7665555 8.051161 
286 1 5.273927 -4.343212 -1.91233 
287 1 -3.046125 -5.139755 -3.053929 
288 1 -3.084765 -1.617997 6.055166 
289 1 1.77245 -2.704032 3.343229 
290 1 6.766976 -4.416721 3.099947 
291 1 1.224651 -6.617035 2.708989 
292 1 -1.035109 2.67817 -1.990458 
293 1 1.599594 -2.189223 2.65694 
294 1 -3.803456 -2.235393 0.0709328 
295 1 2.42011 -1.539264 -2.997737 
296 1 -8.143179 1.883712 5.714736 
297 1 -0.8735751 0.187681 1.666906 
298 1 -1.191294 -2.079858 2.122813 
299 1 3.469161 2.252347 2.26895 
300 1 1.655589 4.288858 0.4003336 
301 1 -0.7522749 5.564008 -6.288481 
302 1 -1.366621 1.200521 6.986568 
303 1 -3.480563 -4.33694 5.589903 
304 1 -1.476217 -1.611909 -0.253092 
305 1 0.5046159 1.941303 -5.423348 
306 1 -1.223604 3.012496 1.053044 
307 1 -6.425606 4.134043 3.925273 
308 1 1.080568 1.63823 -1.070201 
309 1 -0.7833046 -1.348108 2.681312 
310 1 0.4437835 -1.214249 2.555413 
311 1 -2.257105 1.232339 -4.277026 
312 1 1.805141 0.7376133 -1.740949 
313 1 -5.561712 -0.8413828 -3.721059 
314 1 0.3872419 2.008497 -3.370718 
315 1 5.245661 -3.779879 3.711627 
316 1 2.216766 3.090191 -3.283121 
317 1 1.0598 2.765778 -0.8075955 
318 1 -4.075836 -1.745822 -0.8418502 
319 1 -5.05805 -1.448992 0.6737217 
320 1 0.93006 1.914275 -0.4548343 
321 1 -0.8981085 -0.1325795 1.186095 
322 1 0.9699918 -11.31601 -3.996835 
323 1 -5.24449 -3.400585 2.865438 
324 1 -3.454261 0.07587263 -4.925835 
325 1 0.7232266 5.449515 5.023384 
326 1 5.591309 -4.530634 -1.640705 
327 1 0.3205086 2.68462 -4.438151 
328 1 -1.770894 -6.387728 -0.006946898 
329 1 0.611956 1.323499 -8.416368 
330 1 0.9549696 -2.207678 -2.202718 
331 1 -5.088683 -6.00401 -2.458538 
332 1 1.823636 -0.3633291 -6.222894 
333 1 -1.413961 3.064597 -0.2210686 
334 1 5.073785 3.992954 2.815118 
335 1 4.806691 -0.05770722 -6.760196 
336 1 -4.942064 -0.1762913 1.449023 
337 1 -2.288626 2.031593 0.8147626 
338 1 1.649073 8.354987 1.743305 
339 1 -0.7242197 1.993954 2.128117 
340 1 -2.155739 -6.335276 -2.284345 
341 1 2.028367 -0.1613078 0.4301096 
342 1 -0.5419632 1.850315 -3.165055 
343 1 1.613297 5.186935 -0.2013145 
344 1 3.588388 1.3192 2.458157 
345 1 3.683436 -1.615799 3.363599 
346 1 4.903736 3.672099 -5.064854 
347 1 -2.022158 2.67435 7.691847 
348 1 2.44288 8.370558 -0.1688925 
349 1 1.120219 -0.8144269 -2.2798 
350 1 2.584779 -1.650721 4.586748 
351 1 1.650803 -8.183333 -4.524326 
352 1 -0.8483396 5.704435 0.4283567 
353 1 2.845558 -1.659029 -0.2700547 
354 1 -3.580968 -3.767791 -0.8974616 
355 1 2.058827 1.37321 -1.027755 
356 1 3.247705 2.187116 -1.979926 
357 1 -0.2661225 1.594593 -2.584241 
358 1 0.3697997 -3.004826 -0.6167387 
359 1 1.269913 3.721132 2.962142 
360 1 -5.243101 0.101367 0.5076447 
361 1 6.132295 4.562184 1.147286 
362 1 9.214244 -2.255142 -6.203978 
363 1 0.3818476 -1.172921 0.9047812 
364 1 -0.1835889 -5.039912 3.012334 
365 1 -2.289636 -8.351873 -11.41389 
366 1 0.08296386 1.604172 2.318401 
367 1 7.423169 -1.575439 -7.04544 
368 1 2.17759 -2.742323 4.540742 
369 1 -5.026948 -0.4063747 -1.020486 
370 1 -1.192859 5.216612 2.438311 
371 1 0.2200187 -4.63892 -9.344423 
372 1 -4.985916 -0.7312749 5.454457 
373 1 3.688151 6.095133 1.065179 
374 1 -0.7975663 2.667811 5.168725 
375 1 -0.2819844 0.5578436 -3.997708 
376 1 -2.396509 0.8235807 1.231763 
377 1 -3.498022 4.428093 1.293368 
378 1 2.61977 5.966101 -6.486437 
379 1 1.433037 -1.894184 3.144894 
380 1 5.13069 -3.325094 -5.1109 
381 1 0.7153925 -1.680304 1.154497 
382 1 1.009677 -3.48368 2.427762 
383 1 6.280641 -1.762798 0.8271079 
384 1 1.607013 5.596089 3.32386 
385 1 0.995704 -2.843792 3.801722 
386 1 -2.751441 1.330521 -3.549444 
387 1 3.534956 0.6471743 -3.126665 
388 1 7.116632 -0.9058643 -1.898744 
389 1 -1.014831 -2.155795 -2.149766 
390 1 -0.8070098 -3.487468 3.549235 
391 1 1.565774 -0.06696589 4.668414 
392 1 -2.871672 8.265251 -7.453914 
393 1 2.966517 5.695504 4.337336 
394 1 0.8994996 -0.9379304 2.81922 
395 1 3.301445 -1.813625 3.251237 
396 1 -10.62394 6.020923 0.1285907 
397 1 -2.587397 -2.646581 6.691979 
398 1 4.526019 0.876764 -3.597153 
399 1 -4.963035 -0.5547894 6.876586 
400 1 -3.694573 10.20138 1.260079 
401 1 -1.471607 -4.147522 -2.871665 
402 1 1.793735 -9.221503 -1.967628 
403 1 5.767154 2.24726 -1.32842 
404 1 1.106005 4.505873 -2.849182 
405 1 2.024282 -3.743206 0.01332921 
406 1 -0.7097276 0.6281539 -0.961979 
407 1 -4.400473 -6.320883 2.960357 
408 1 0.2536256 0.1006591 -0.8624172 
409 1 0.266417 -5.11526 3.809947 
410 1 -1.453922 -3.109325 2.359476 
411 1 2.038156 1.777352 -0.7872759 
412 1 -3.561413 -1.128541 1.994344 
413 1 -0.6571741 -1.775077 7.187833 
414 1 -9.675071 -8.782004 -4.031691 
415 1 -2.287187 -3.185591 -5.721933 
416 1 -4.827855 2.678885 -0.05202085 
417 1 -6.331651 0.7116861 3.278714 
418 1 3.736474 -5.557572 -1.75741 
419 1 -9.695642 -0.3478681 5.359913 
420 1 -0.4659218 6.801597 -3.99672 
421 1 0.9794938 -2.486266 8.059989 
422 1 4.704687 5.247359 -3.892073 
423 1 0.3517575 4.052484 1.93053 
424 1 2.085794 -0.7151974 5.917112 
425 1 1.017526 3.121487 -2.449591 
426 1 4.358049 -2.495654 4.756179 
427 1 -1.386985 -3.10791 -0.4459237 
428 1 -8.915889 4.378342 2.341703 
429 1 -7.932391 -2.674157 4.970802 
430 1 -2.315109 -3.055839 -5.158308 
431 1 -4.956472 1.182639 -1.676956 
432 1 -4.467816 1.794332 3.631549 
433 1 -1.760075 0.9773352 5.931542 
434 1 -0.7859697 4.521544 -0.2837488 
435 1 -1.052568 5.030637 -1.649595 
436 1 5.507711 -0.00701187 -3.329812 
437 1 -7.530934 -3.51979 4.057137 
438 1 2.305879 -1.784355 6.068923 
439 1 5.44816 -6.586425 -0.3451056 
440 1 4.894874 -7.340184 -0.2020036 
441 1 -2.571437 11.30062 6.047311 
442 1 -0.5765164 -2.164122 -1.801302 
443 1 2.648635 -4.438491 0.4961956 
444 1 -7.259362 2.605704 0.7432406 
445 1 -4.576469 -0.01397436 -5.447286 
446 1 2.219434 3.649615 3.192333 
447 1 -2.641936 -1.847627 2.107673 
448 1 -2.421715 2.193062 -6.394214 
449 1 5.349384 -0.9885221 4.876054 
450 1 -1.14409 2.51698 3.947725 
451 1 4.289973 -4.859829 1.229339 
452 1 -13.32885 1.57491 0.9692107 
453 1 3.320212 -2.657243 3.616494 
454 1 -10.44824 -5.823387 4.263698 
455 1 0.6086771 -0.5175392 -1.304848 
456 1 -2.302829 -1.855302 -6.664049 
457 1 -7.91692 1.595588 2.406357 
458 1 -1.328072 6.792814 -2.230005 
459 1 -1.364642 3.972673 -4.147199 
460 1 -10.55507 0.06125867 -6.091686 
461 1 2.192696 -2.234459 -1.126155 
462 1 1.034631 -5.079172 -1.991983 
463 1 2.562023 -2.776612 -3.193559 
464 1 -0.07316813 1.217309 4.951196 
465 1 2.58605 2.80133 5.021765 
466 1 -3.828277 6.706838 -2.708726 
467 1 2.139261 2.615504 -4.644568 
468 1 -7.018619 0.5521888 0.5359948 
469 1 0.9153117 -2.687788 -0.875712 
470 1 -3.408334 0.4264412 -2.993374 
471 1 2.133109 3.490874 -1.671064 
472 1 3.587115 -0.546644 -3.964953 
473 1 -2.209789 4.592059 4.338011 
474 1 3.948857 19.78373 2.279226 
475 1 1.863027 2.135189 -2.918985 
476 1 3.141134 -4.509469 2.170339 
477 1 1.946641 0.6060606 -7.053294 
478 1 1.673357 -1.098256 -4.899985 
479 1 -1.775448 -2.225379 4.43756 
480 1 1.89034 -1.910908 -1.193556 
481 1 2.671074 3.482839 -2.730211 
482 1 -2.563435 2.130457 -3.467013 
483 1 2.497583 -2.373133 1.538521 
484 1 -4.59662 4.675367 -1.754644 
485 1 -1.571151 -1.936765 6.771513 
486 1 -0.7366793 0.8777802 -1.9606 
487 1 -4.391522 0.3028538 12.97347 
488 1 -2.26699 2.541352 1.163679 
489 1 8.670753 1.570495 3.988593 
490 1 3.217873 -2.628664 -0.3012459 
491 1 0.1167952 -4.449683 -2.610888 
492 1 -4.518872 7.015042 1.101127 
493 1 5.949837 2.521975 -9.178604 
494 1 1.166569 -2.352025 -5.18027 
495 1 -3.334739 1.4109 1.038386 
496 1 -4.811668 1.4009 -0.3188033 
497 1 4.583119 2.224941 2.116981 
498 1 -2.502922 -5.112896 -3.050479 
499 1 -1.69065 -4.43422 -11.57404 
500 1 1.288539 2.816292 4.424875 
501 1 4.722431 3.187615 0.9742161 
502 1 2.640089 4.690145 -0.1710977 
503 1 1.258176 1.430297 2.05421 
504 1 -3.194317 -2.352921 -0.6002306 
505 1 -0.05882738 -0.3650287 1.834984 
506 1 -0.4090628 -0.7398445 3.082893 
507 1 -2.397719 0.6466129 -5.414671 
508 1 -0.4027437 -2.7038 0.2017263 
509 1 0.3200145 1.053835 4.329887 
510 1 -5.481918 -5.575386 -2.78702 
511 1 0.5002409 -1.786788 0.9757045 
512 1 -0.6663579 4.314975 1.870814 
ITEM: TIMESTEP
2000
ITEM: NUMBER OF ATOMS
512
ITEM: BOX BOUNDS pp pp pp
-5.8204376566328264e-02 2.4893204376497767e+01
-5.8204376566328264e-02 2.4893204376497767e+01
-5.8204376566328264e-02 2.4893204376497767e+01
ITEM: ATOMS id type fx fy fz 
1 1 0.746024 2.313449 -0.7481727 
2 1 -3.220228 0.6503561 -5.030727 
3 1 3.485024 -2.753293 7.613485 
4 1 0.9563626 1.53033 2.810785 
5 1 3.214682 -2.56131 1.950456 
6 1 2.376586 1.428301 1.106044 
7 1 1.223925 -5.710395 -1.041828 
8 1 8.643488 -4.040158 2.08915 
9 1 -0.6258571 -5.822563 1.837484 
10 1 -0.2379951 -2.3879 -13.29755 
11 1 -1.174172 -1.074285 1.820009 
12 1 -0.6091608 -5.628099 -3.670773 
13 1 -4.762989 -9.59605 3.685732 
14 1 0.3618118 -4.545274 -3.88827 
15 1 -2.165741 5.547145 -4.090032 
16 1 0.9796997 6.640527 -1.586982 
17 1 3.171484 -1.057152 -0.7793283 
18 1 -5.167589 -2.544727 -0.3345485 
19 1 1.015508 7.113083 -0.750606 
20 1 -2.720837 1.307963 0.9131579 
21 1 -6.278359 -3.111784 -5.236613 
22 1 -1.307389 -4.232486 5.551359 
23 1 3.172119 2.257352 1.090214 
24 1 3.901763 -5.249574 -0.8626279 
25 1 0.07412113 4.882558 -6.136729 
26 1 0.8940492 4.25732 3.814232 
27 1 -0.4163217 1.469916 1.500546 
28 1 2.713499 0.2307903 -1.15467 
29 1 -2.677501 6.0351 -3.620578 
30 1 -0.8715875 -0.005453004 0.09875935 
31 1 3.117853 7.82477 -3.455662 
32 1 -4.928496 1.496389 -1.399222 
33 1 -0.8498413 -3.072293 1.420875 
34 1 2.163089 6.687225 1.512895 
35 1 -1.154046 2.642528 -5.00739 
36 1 6.685143 -0.6785038 -0.6907957 
37 1 -1.057488 -9.541723 -4.95058 
38 1 -2.24923 2.262876 1.500787 
39 1 1.655699 -0.9260769 -0.2291485 
40 1 0.632829 2.874598 1.245265 
41 1 -0.9746497 -4.588449 2.734982 
42 1 3.9932 4.581066 3.269246 
43 1 10.15534 -1.491578 -1.181791 
44 1 2.244842 -1.66842 -4.047923 
45 1 -0.79394 -2.439259 -0.4449946 
46 1 1.404098 -3.05266 -1.662019 
47 1 -2.356402 -2.965779 7.164826 
48 1 1.527776 -5.631391 7.593446 
49 1 -2.641627 -1.234806 1.515436 
50 1 1.949955 -0.5253871 -2.050156 
51 1 0.08379392 2.168557 -2.639642 
52 1 0.4693756 2.041981 -0.7043461 
53 1 5.22505 -4.941351 -1.455438 
54 1 5.599006 -3.479423 -2.432135 
55 1 -4.99613 -2.18025 -2.386851 
56 1 2.533178 2.309522 -8.276405 
57 1 -3.650853 4.008832 -2.628309 
58 1 -8.645748 3.666802 2.926589 
59 1 -1.565022 1.047006 -6.153683 
60 1 1.592351 -1.56451 2.950098 
61 1 6.998526 2.413367 1.078892 
62 1 -0.01938545 6.940185 -2.986798 
63 1 13.34281 -5.11405 0.7527028 
64 1 1.304373 3.680935 -4.659132 
65 1 -0.2152407 -0.3866329 -1.666717 
66 1 1.178444 0.007587185 0.1457076 
67 1 -0.9975332 -5.788953 2.243767 
68 1 0.1717854 7.598084 -3.328625 
69 1 -1.798881 3.22915 -3.993124 
70 1 3.852097 4.163427 -1.779975 
71 1 2.830283 1.367877 -0.4247003 
72 1 -0.08863105 -1.564624 -6.587049 
73 1 -0.5197479 -0.7695274 0.4387776 
74 1 -2.941805 1.904126 -3.280438 
75 1 6.081958 5.197875 5.938384 
76 1 -1.671653 -1.215658 1.873758 
77 1 0.18871 4.742624 2.112841 
78 1 5.779787 0.3067167 4.432511 
79 1 -5.09243 2.751175 -4.287266 
80 1 0.2526319 -7.985249 0.9987781 
81 1 -8.465216 5.16165 -2.250603 
82 1 3.684755 -5.160244 6.104147 
83 1 -3.314935 2.149207 -1.022085 
84 1 6.572379 3.428308 0.8244386 
85 1 7.173271 -4.369814 1.044313 
86 1 1.087723 -4.137945 1.872533 
87 1 -8.237852 -1.309803 7.333469 
88 1 -0.7471014 -2.576477 3.652818 
89 1 0.271047 -3.144003 3.76079 
90 1 -1.445324 -0.4547839 1.182812 
91 1 0.8825002 0.4195313 4.317688 
92 1 -4.098883 -2.71639 -2.762997 
93 1 -1.18332 4.136155 2.688358 
94 1 0.212452 4.461151 0.08775272 
95 1 -0.4543486 -3.076523 -1.154168 
96 1 1.061483 1.527249 2.568357 
97 1 1.166257 7.271076 8.886631 
98 1 2.60786 0.9427333 -2.277813 
99 1 -0.3588075 -4.674854 1.471346 
100 1 -0.932305 -0.8574433 -5.088697 
101 1 -0.01088685 -4.882975 -1.013712 
102 1 -8.133114 3.829891 0.1435724 
103 1 -7.435293 2.553362 -1.030422 
104 1 2.450641 3.48032 1.927544 
105 1 0.2928166 -3.290512 2.15816 
106 1 -0.1019766 0.710304 1.087956 
107 1 -1.803253 0.1974679 2.812185 
108 1 1.714789 -0.05605643 1.475718 
109 1 2.353788 0.08884571 -1.918658 
110 1 0.1837101 -0.1597485 2.20123 
111 1 0.2114978 3.695435 3.541373 
112 1 0.7451161 -4.057455 2.627047 
113 1 -6.672212 2.746037 -3.623856 
114 1 -1.989581 -3.341689 1.701492 
115 1 -1.850445 -4.568303 0.3211015 
116 1 -0.1920185 -0.7644304 1.615023 
117 1 -7.090454 -0.5366772 6.760429 
118 1 0.4890721 -6.160089 -6.099929 
119 1 0.8217503 6.70595 8.023894 
120 1 5.069808 6.662776 1.892431 
121 1 2.453927 0.6807677 3.032221 
122 1 -2.218482 -3.98663 -4.478834 
123 1 -1.257697 -2.45423 -4.588352 
124 1 -3.414836 0.8641418 -1.381242 
125 1 0.9791876 -3.1876 4.348213 
126 1 4.349909 0.9095448 -7.382615 
127 1 2.097453 3.049985 -2.973743 
128 1 -0.3513516 -2.227652 -0.6863501 
129 1 2.738037 4.628938 1.124741 
130 1 -0.1447251 2.253388 -1.651894 
131 1 -1.323466 0.2829541 -0.1092292 
132 1 8.395468 -2.109919 0.606642 
133 1 -1.314713 -3.940472 2.906971 
134 1 -3.440693 -3.770582 -1.5201 
135 1 -3.511715 -1.279572 -2.190084 
136 1 0.728168 -1.892041 1.548434 
137 1 -6.946057 0.8423064 0.7954146 
138 1 4.409159 0.7857755 -0.8875451 
139 1 -5.12174 -6.035729 4.060904 
140 1 2.117596 -2.922635 -0.6701935 
141 1 -1.570757 -6.373857 -0.560689 
142 1 -5.98801 1.95398 -6.688551 
143 1 0.8559473 1.925201 1.76443 
144 1 3.5791 -6.040228 0.9329521 
145 1 -2.920871 -5.449448 -3.755992 
146 1 2.686306 6.4964 -4.015885 
147 1 -4.159142 -0.0177829 -1.751245 
148 1 0.6622013 -0.7058416 1.498621 
149 1 -0.9181759 -4.687559 -0.3715728 
150 1 -4.554487 -3.456849 -3.701696 
151 1 -7.197763 -1.855326 -3.247849 
152 1 -2.268292 -2.193696 -2.783016 
153 1 -1.136769 -4.628044 -3.981233 
154 1 1.309801 9.606506 -2.579082 
155 1 -1.270507 2.211108 1.793726 
156 1 6.385981 -5.010272 -4.437639 
157 1 2.178991 -2.974961 -0.4795262 
158 1 -1.711021 -0.2887424 -3.106429 
159 1 1.793315 -6.953423 0.5385278 
160 1 9.347762 -3.358697 6.138104 
161 1 -1.763283 3.24387 1.661844 
162 1 -2.846269 -2.431894 -5.730808 
163 1 -4.271411 -0.8469692 1.56406 
164 1 -2.093736 6.502943 0.1606576 
165 1 -3.237789 0.2626864 2.670703 
166 1 -0.7503437 0.9293266 7.127939 
167 1 4.569992 2.778013 -4.23979 
168 1 0.9561475 -3.948405 5.271996 
169 1 3.195705 9.026645 6.088603 
170 1 -3.273271 0.66781 1.954499 
171 1 -4.177566 0.4815296 -1.261003 
172 1 1.033247 3.583881 0.958367 
173 1 -0.6694806 -1.511986 1.574443 
174 1 1.284974 0.6069627 2.162995 
175 1 1.685937 2.290385 2.947661 
176 1 -1.722847 -0.8628524 0.5960761 
177 1 1.78632 -1.16481 5.436892 
178 1 3.905678 1.687107 6.932046 
179 1 1.030353 5.255325 3.800226 
180 1 -1.847605 -2.003068 -1.188272 
181 1 0.1243514 9.989112 -1.327288 
182 1 1.967591 2.051533 0.1320465 
183 1 0.4042784 1.453117 3.43695 
184 1 -2.242634 -0.7288354 2.114029 
185 1 0.8691757 -3.18742 -3.664649 
186 1 -4.048086 2.37392 3.67182 
187 1 0.9151296 -1.422134 -4.464649 
188 1 3.752252 -0.07578776 -1.894781 
189 1 -1.233361 -3.448315 2.639306 
190 1 -0.3430264 4.412295 -5.33159 
191 1 -6.605464 3.904585 1.897975 
192 1 2.674447 3.935252 6.319231 
193 1 -5.708265 -1.144678 -3.845179 
194 1 3.782456 -1.237281 3.733166 
195 1 2.668937 5.505267 4.368154 
196 1 -3.93875 3.450275 -1.782717 
197 1 2.374946 3.952848 4.04709 
198 1 -1.264129 0.5268019 -1.486218 
199 1 -7.491603 3.164098 0.692921 
200 1 0.7177247 2.961537 -1.177017 
201 1 1.919527 5.759481 3.423676 
202 1 -1.240143 14.44961 0.3636593 
203 1 -6.000075 0.4028992 -1.659513 
204 1 1.202661 2.259581 0.5299927 
205 1 -10.15241 4.692745 3.73056 
206 1 -2.50253 -4.912642 0.1984556 
207 1 0.7996868 -0.1858 -4.650704 
208 1 -2.910392 2.710441 -0.15899 
209 1 -3.445957 -1.426235 -9.610958 
210 1 -2.77065 1.463945 6.026272 
211 1 -4.907697 6.087387 10.35395 
212 1 2.540357 -4.973698 0.2481772 
213 1 -1.22573 -2.301376 -1.116429 
214 1 0.1571757 -1.666382 -2.366869 
215 1 -3.407552 6.300258 -0.7942192 
216 1 6.471265 -3.564921 -0.4029059 
217 1 1.704506 2.118742 -4.640895 
218 1 2.340174 -1.766306 -5.326372 
219 1 -3.25314 -1.197031 -5.287615 
220 1 7.624438 -2.522703 4.923113 
221 1 -2.701044 0.6905337 6.027556 
222 1 5.206932 5.413708 -10.97446 
223 1 -4.430623 -2.185167 0.837211 
224 1 6.535459 9.216216 -6.104998 
225 1 2.090423 -1.112075 4.482062 
226 1 0.1920682 -7.739701 1.036485 
227 1 1.988797 -4.830913 -3.433673 
228 1 2.99559 -2.264274 -1.857559 
229 1 2.112856 -5.107714 -1.437274 
230 1 -0.4110885 1.102478 0.573265 
231 1 1.086555 1.590129 -4.816937 
232 1 -3.701808 1.486799 2.486232 
233 1 1.299483 -4.155941 -3.580093 
234 1 -3.732409 0.8668313 -0.3899919 
235 1 -2.708513 4.755126 1.067943 
236 1 4.507619 -3.954415 -0.8027228 
237 1 4.061908 2.660133 1.076229 
238 1 0.6072641 -4.152326 -1.602277 
239 1 4.358553 -4.45127 2.212636 
240 1 3.287074 4.423903 -8.408086 
241 1 -2.69799 -1.575208 -6.358551 
242 1 1.81358 -4.727221 4.986314 
243 1 -0.2922011 1.271466 0.2468204 
244 1 -6.973012 -1.386556 3.111296 
245 1 -0.4510072 -8.937718 -3.886735 
246 1 1.693043 1.180439 2.886686 
247 1 -1.827282 -6.294827 7.351958 
248 1 2.094276 -0.1854105 -7.608693 
249 1 -2.577195 -5.995377 4.69242 
250 1 0.06381701 -0.5284612 -4.283303 
251 1 -4.22697 5.590185 2.455726 
252 1 -10.94971 2.652388 4.468696 
253 1 -0.2646975 0.0222884 -0.06820891 
254 1 5.075755 2.987108 -1.834516 
255 1 0.5812682 -3.554744 3.680925 
256 1 0.9944549 -3.272238 -4.073555 
257 1 -0.7188124 3.386732 -0.4302759 
258 1 -2.307818 4.792685 3.810909 
259 1 1.983624 1.132636 2.902721 
260 1 -3.28218 -6.106821 -4.550819 
261 1 2.044669 -4.648324 1.283718 
262 1 1.217479 0.8873429 -1.096949 
263 1 6.787048 -2.428708 -0.9072935 
264 1 -1.377132 0.4354837 -2.281781 
265 1 -2.511669 3.406051 3.468946 
266 1 -0.5635033 0.5632558 0.7089712 
267 1 -2.187897 -8.19059 6.780113 
268 1 4.36071 8.11007 -2.238636 
269 1 1.15708 1.543808 -4.311274 
270 1 -2.856268 -1.755574 -0.4505243 
271 1 -6.546593 1.868324 -5.526234 
272 1 -3.276046 10.14885 -3.535623 
273 1 1.656009 3.337136 0.927308 
274 1 -2.401333 -3.009725 -1.948132 
275 1 1.266764 8.657533 -3.129385 
276 1 1.942811 -1.61223 -0.9089905 
277 1 -0.09035478 -2.985207 1.611919 
278 1 -1.980732 8.163744 -0.6054327 
279 1 -1.960735 7.012364 5.873107 
280 1 -2.652528 3.16172 6.039816 
281 1 1.564628 2.732143 1.138806 
282 1 -0.3292794 4.411461 -1.614438 
283 1 5.933648 2.272809 -4.926024 
284 1 -1.314898 -4.060588 -7.808938 
285 1 -3.832052 -0.1719283 2.915035 
286 1 5.42815 -2.969404 8.901362 
287 1 -2.077889 4.647225 -0.674375 
288 1 -5.982946 -2.385431 0.6911215 
289 1 -0.9947824 -0.9677983 4.933182 
290 1 3.594204 -0.06862418 3.44774 
291 1 -1.401332 -4.803637 -2.506756 
292 1 3.692444 -0.8388502 3.421118 
293 1 4.558025 -2.053749 -1.070961 
294 1 3.721838 5.125817 -0.4762727 
295 1 3.552899 -7.50368 -4.032402 
296 1 -1.919562 -1.588396 -5.446609 
297 1 2.395163 5.489647 -4.853738 
298 1 -0.3687111 -3.14449 -4.554915 
299 1 -2.016455 -4.796266 1.272633 
300 1 0.2313846 1.849874 -3.274435 
301 1 -1.114194 -1.119913 3.490774 
302 1 0.7918134 5.213529 8.345366 
303 1 -1.125287 2.595922 -1.425825 
304 1 -2.41603 0.3033413 2.176132 
305 1 5.412279 -1.136007 2.449641 
306 1 -2.671072 -1.931551 2.52015 
307 1 5.848686 -1.004073 0.4777411 
308 1 4.698291 1.422415 -4.507299 
309 1 -0.1572942 -1.614694 5.014465 
310 1 1.77491 -6.446372 1.285582 
311 1 -6.45577 -4.119454 -0.07954505 
312 1 1.591045 0.7695217 -1.630664 
313 1 -1.259635 1.057275 -0.5213656 
314 1 1.706327 -2.937037 7.599867 
315 1 -3.426349 -5.927658 -4.456614 
316 1 -2.687491 -9.460603 1.974609 
317 1 1.243923 1.258089 -3.867157 