LAMMPS data file via write_data, version 4 Jan 2019, timestep = 1000000

512 atoms
1 atom types

-4.2419200862203965e-02 2.4877419200868804e+01 xlo xhi
-4.2419200862203965e-02 2.4877419200868804e+01 ylo yhi
-4.2419200862203965e-02 2.4877419200868804e+01 zlo zhi

Masses

1 18.0153

Atoms # atomic

130 1 1.0505792286576439e+01 1.0455927294611200e+01 1.0127492054464090e+01 -20 -31 11
459 1 2.4828490414904152e+01 4.9099322022225858e+00 9.8875819501721338e+00 57 -13 40
228 1 8.6026303705517524e+00 8.5885874424140312e+00 2.5439398583893640e+00 -36 23 15
340 1 1.1732517215716504e+01 1.1851339872860978e+01 4.0343521706529639e+00 60 38 21
165 1 1.3577646209719129e+01 2.8057015284743625e-01 4.1596866698225794e+00 90 -13 90
17 1 9.0629528061480009e+00 7.9823356332811972e+00 1.1074310869537458e+01 49 19 15
83 1 1.8760374064908213e+01 4.9561501674230550e+00 1.1397980879552541e+01 40 0 -4
242 1 8.9929959040819369e+00 1.1719602297825030e+01 2.9208365261217568e+00 15 11 -40
301 1 1.9521220966969210e+01 3.0592011237575765e+00 -2.8260145230535352e-02 111 27 29
33 1 7.3296060220889414e+00 6.4761617300469521e+00 1.1337250903964124e+00 -105 -34 -14
88 1 1.5921008806661510e+01 8.9767923703742092e+00 5.4793266952038646e+00 -17 22 49
251 1 2.0777016431453880e+01 4.0227759629557323e+00 7.6695524398725068e+00 -46 28 -53
313 1 1.7121910397370897e+01 5.4988115820231691e+00 9.3377389597101494e+00 -53 26 47
250 1 2.2998167717521298e+01 1.1148072900047890e+01 1.7007429831733225e+00 -1 10 171
451 1 1.6036006077433903e+01 1.0879396587229079e+01 2.1902794705702480e+00 84 30 -20
186 1 2.1352844741495865e+01 2.7494916028229373e+00 2.2036303254114009e+00 -35 170 22
213 1 1.6745819973715954e+00 1.0312410635639452e+01 6.1736228389468462e-01 -56 -4 17
143 1 4.4129094844698029e+00 9.9138852328193945e+00 2.7575983988998626e-01 45 6 10
433 1 3.2389444187676779e+00 3.4941246914016935e+00 2.4935194260188647e+00 18 -54 -48
490 1 1.0718489368505226e+01 4.3238765400677295e+00 9.1952385314136951e+00 7 -88 -5
278 1 1.5970038710586815e+01 1.1765279413842107e+01 5.8701422868837483e+00 -80 -105 36
127 1 1.1958765782953503e+01 6.1379551555367451e+00 1.2199643595554517e+00 54 77 71
252 1 5.5884768530708726e+00 5.9929848814807469e+00 3.2867006940715369e+00 -60 -77 6
55 1 1.8438861790886352e-01 9.1242367209747446e+00 2.7174677514754793e+00 45 66 -10
236 1 1.8463939265318279e+00 5.0370130899542742e+00 4.5607216569273135e+00 38 76 62
323 1 5.4108725494853580e+00 1.1641781789642391e+01 5.5636416769869292e+00 18 -103 16
396 1 1.1194358468353549e+01 8.7665315868852147e+00 1.7612497745249418e+00 7 -5 18
215 1 6.8616685538451696e+00 1.4985630737199072e+00 1.1426563543340931e+01 11 -140 -36
108 1 1.9079645303726586e+01 6.1646162666040594e+00 7.1496649749629810e+00 31 -44 29
59 1 2.1628862011622427e+00 1.0078226236671632e+01 4.1418989860435156e+00 51 -102 50
268 1 3.8625403465088191e+00 6.6254163099338461e+00 5.3593749483100108e+00 -120 -7 -5
484 1 2.0246565522992242e+01 9.1302447255323322e+00 4.6560651884275268e+00 -44 -13 90
277 1 1.5859679234870338e+01 2.9783242892373378e+00 1.0086840701849447e+01 44 5 97
176 1 1.1169598608539649e+01 2.9871791247824231e-01 6.9904025110021513e+00 -99 -95 -26
227 1 1.2136975011453421e+01 2.7936611525677364e+00 6.9512384604640118e+00 135 108 -4
333 1 7.1410045523603705e+00 6.3432267093106676e-02 7.2081787572605043e+00 19 26 40
172 1 1.3441576986705146e+01 9.5014569378606542e+00 3.1690420040381602e+00 -24 -113 43
61 1 1.6079920126226980e+01 9.5048079264380885e+00 8.7787678494012216e+00 94 -64 92
391 1 7.3787795987335176e+00 4.0592104612778108e+00 4.6538064627210698e+00 -81 -36 -3
77 1 1.7708294588985503e+01 8.6695000971151739e+00 9.8919811727432561e-01 47 -16 12
405 1 8.0668185144459095e+00 4.0097823321458126e+00 6.5787697999958716e-01 -18 -6 55
393 1 1.9957494814115364e+01 1.1497260755899060e+01 5.7462483185089175e+00 83 45 -91
264 1 1.4914116425356204e+01 5.2525518925417911e+00 1.5140918918012753e+00 -100 30 48
509 1 1.5905508118330127e+01 3.2692438541383423e-01 2.6948641435338785e+00 112 46 -77
114 1 2.0143482839101942e+01 1.1939314867515911e+01 1.6789991531104620e+00 -19 8 -12
318 1 1.7854795167645200e+01 7.7729001197886918e+00 3.7975820054630214e+00 36 11 154
305 1 1.9575741293062173e+01 8.7380027313471587e+00 8.4020978049689621e+00 10 97 21
449 1 1.4024170124215189e+01 4.9723168961195086e+00 1.1111683521156696e+01 -58 68 32
162 1 1.8521184269726945e+01 7.6448357779622675e+00 1.0715326196688835e+01 -39 7 -2
476 1 6.1141891967274757e+00 2.9906782422780448e-01 3.5023139964654617e+00 -33 -22 -42
124 1 3.5889711060178482e+00 6.3351921270018021e+00 7.9346888665908404e+00 -50 164 -30
224 1 2.2256239448084862e+01 8.5044075136491859e+00 6.8401609538574526e+00 58 -89 11
198 1 2.4105868193989799e+01 7.6087519006160553e+00 8.8881596668574510e+00 -28 46 17
495 1 1.2955206589862727e+00 2.4572872684602687e+00 5.8296008266392638e+00 -29 13 -55
461 1 1.4934197186551980e+01 1.1658426005182912e+01 1.0617616333007174e+01 4 23 -2
159 1 1.3668865011514969e+01 3.0765308200497272e+00 4.6785751685229693e+00 -60 54 103
276 1 8.3362313680667555e+00 2.7196843726219542e+00 8.1709315388833303e+00 32 165 -32
95 1 3.3929728479210723e+00 1.0734892672404159e+01 9.7798654408266206e+00 60 131 7
6 1 2.4472640484945821e+01 4.5109628881456212e+00 6.9939361579760817e+00 85 22 -28
371 1 1.7379570150760102e+00 8.1130654369567310e+00 1.1908989309058498e+01 -68 30 -61
152 1 7.3287968437077486e+00 9.7181589797457910e+00 6.7039570284147141e+00 -63 -158 -8
115 1 1.3944259514252185e+01 1.3419340495972378e+00 8.7929168030932772e+00 84 -152 37
139 1 2.0605641472875909e+01 8.9243297118401355e+00 1.8342258789290786e+00 -15 -6 -18
466 1 1.3602265388722790e+01 7.4598081839699653e+00 5.7145645783538024e+00 108 -37 -26
188 1 1.7914529208088297e+01 1.7654343337352427e+00 3.7151785265332959e+00 1 -5 64
111 1 2.1940555165631672e+01 2.5500093908532495e-01 6.5378862973628822e+00 7 46 80
247 1 2.1910493704751914e+01 5.1361232437787558e+00 1.0254636032693007e+01 16 -20 6
295 1 5.6157800829300619e-01 9.4340192881334666e+00 6.6662848623697908e+00 -36 -17 -15
164 1 6.4389587049665566e+00 7.5478550699646387e+00 1.0709117916687491e+01 41 28 138
432 1 1.7272336751294233e+01 2.3382775708798191e+00 7.8261612669447631e+00 31 -58 0
113 1 6.8532698391120253e+00 6.9270698308083212e+00 7.2339628618590783e+00 -51 23 90
510 1 1.2008083294066383e+01 9.1756548963906930e+00 8.0285682237561531e+00 -55 135 38
212 1 5.2162443599509531e+00 5.1221520328669081e+00 1.1517151634701049e+01 -9 -29 -34
353 1 5.1008935186879354e+00 9.1360351790033167e+00 5.0617168248929492e+00 -160 68 106
54 1 1.9678852956847265e+01 1.8333895852333404e+00 6.7892381765791479e+00 -6 9 38
336 1 1.2505620200066835e+01 1.2059330075919105e+01 1.1946575647347338e+01 39 -7 -112
407 1 1.7601827763679154e+01 4.2459206116143715e+00 2.0613370507580191e+00 19 9 57
219 1 2.4705051055558464e+01 3.5741355907042305e-02 5.8242147401423008e+00 -31 -19 -93
22 1 1.5153714910333711e+01 7.0050549010725467e+00 7.8421900510592542e+00 3 -63 60
181 1 4.1445335542725745e+00 2.4813265718474349e+00 6.9147463365452007e+00 71 74 -47
86 1 1.0982015975430878e+01 6.1822459397230789e+00 1.1730726981030534e+01 -39 -71 80
185 1 1.4303652542510070e+01 1.0716567739974641e+00 1.1749381212580262e+01 -4 19 -11
69 1 4.5503759742498984e+00 1.1485071615348581e+00 9.4965296171177211e+00 -22 8 10
53 1 1.5207472467653323e+01 5.5423162377900645e+00 4.5476804950716456e+00 58 102 139
374 1 2.0547970542645963e+01 7.9678087534326381e-01 4.2799850994020723e+00 -10 41 -4
229 1 2.2136881232529731e+01 4.5683429156012845e-01 1.2014380986269064e+01 50 28 36
48 1 1.7469882793345080e+00 9.2158284787606670e-01 1.2023161994841947e+01 23 -3 27
345 1 8.6632741149006165e+00 6.1335989194806535e+00 9.1012953321117074e+00 94 144 -23
417 1 1.2954199911902684e+01 6.8566944066900728e+00 9.2240681183148716e+00 11 -10 -14
499 1 1.6572599325259539e+01 3.1781239723845132e+00 5.3341830890225008e+00 51 -24 -73
39 1 9.6304946256618980e+00 4.2929401485599303e+00 5.8844359305000271e+00 7 32 49
261 1 2.1119669314020659e+00 4.1173605056660074e+00 8.1965126237540975e+00 4 37 -121
249 1 7.8990487010662118e+00 2.1845415152918739e+00 2.8822785945233393e+00 -56 -33 -42
51 1 7.6679840914984547e+00 1.0112635471516123e+01 9.5823018352131069e+00 28 5 -43
401 1 2.4578426252416584e+01 6.2488613930080241e+00 3.0528396533147508e+00 30 17 17
158 1 2.6190274487021794e+00 1.1847984189258949e+00 3.3587270413002179e+00 -59 48 -79
96 1 2.2992740653217261e+01 6.1187622225057590e+00 5.4651782948833292e+00 233 40 71
49 1 1.1548735780775017e+00 4.5859409632675181e+00 1.0705073548841315e+00 -6 28 -16
79 1 2.1051994270256309e+01 9.5518244724004102e+00 1.0876736098968244e+01 0 -86 113
379 1 1.2889768011148734e+00 5.2946818306408439e+00 1.2189714016730891e+01 135 -7 70
445 1 1.0823308244951253e+01 6.5430650259094758e+00 7.0104193693224079e+00 106 63 7
13 1 2.3520240329910365e+01 1.0357879424353166e+01 4.5518782502196675e+00 135 -17 62
58 1 2.1302979127338141e+01 4.4526403812415785e+00 4.1467308465803461e+00 7 -7 0
481 1 9.2391934800865840e+00 8.2493577417569544e+00 5.3833791888930138e+00 33 -22 -6
483 1 1.2324685549881533e+01 2.8575892138840815e+00 1.1911393008130020e+01 44 59 17
355 1 1.8711029010344696e+01 5.1658860159758442e+00 4.6011997163042757e+00 -30 4 58
359 1 3.0895771859010703e+00 3.3421425806499441e+00 1.0736473038783954e+01 -42 47 -4
1 1 1.8288104394829745e+01 1.1238883838470093e+01 7.8218317122754915e+00 -41 -43 65
428 1 2.3824021833390709e+01 1.4450025542579668e+00 1.9429550907474948e+00 55 -6 -2
324 1 9.5212846280530830e+00 2.2997539588431422e+00 1.1005884272091285e+01 -3 -60 85
296 1 1.1465338101863432e+01 4.7238115232416860e+00 3.6967433017846107e+00 -37 -111 45
160 1 1.0727236818200172e+01 2.0922282546345836e+00 2.2288943881632077e+00 -23 36 38
370 1 1.0173756572519364e+01 1.0848419896122762e+01 6.2361700483486011e+00 -18 101 33
267 1 6.0592384492829066e+00 4.4198729800926682e+00 7.0127471447819554e+00 -86 59 -60
349 1 3.7763046690962705e+00 8.1013381817207950e+00 1.0110994447193043e+01 -9 26 57
482 1 2.2438295777284438e+01 7.1192725333868871e+00 1.1570992966516549e+00 2 70 28
378 1 1.8058450355437877e+01 1.1985031208552449e+01 3.5585760170031540e+00 15 -18 -56
357 1 6.0140127555427565e+00 9.3096331682909561e+00 2.6467099819613988e+00 14 -13 -16
157 1 1.7940252906826501e+01 2.1034284972945203e+00 1.1975086516977788e+01 -10 -19 64
40 1 4.7406530129864466e+00 5.2981702428666404e+00 6.5181447867380182e-01 14 40 64
473 1 2.3918233253244246e+01 1.1519862366108741e+01 1.0457259301902882e+01 -48 -26 68
308 1 6.0335752958387863e+00 1.2112929236256951e+01 1.0523961270298171e+01 48 109 73
243 1 1.5277064697711593e+01 1.0156760362759454e+00 -1.3518085270902234e-02 21 -40 -21
438 1 1.4076146568991094e+01 1.1353260863438756e+01 8.0556173465682246e+00 32 -15 -61
505 1 1.6989077460568346e+01 9.6029045883061759e+00 1.1890257842696883e+01 1 35 -52
204 1 5.8977872050077949e+00 1.2059785061573081e+01 1.4822431217492120e+00 24 -21 -174
478 1 2.3828696386144244e+01 8.7675794697622056e+00 1.1161151060112839e+01 32 -13 27
320 1 2.4381206096121147e+01 3.0179007739130087e-01 1.0558860443867417e+01 22 86 41
363 1 2.1139105368612185e+01 3.1365645451676367e+00 1.2041149627701074e+01 -4 -30 23
201 1 2.1561805283025087e+01 1.2185335058151727e+01 1.1770531521887765e+01 -95 -49 34
456 1 2.1733625869077663e+01 4.7852299181453519e+00 1.3595467695456692e-01 -34 -27 16
168 1 6.1836552756027485e+00 1.0003158258188597e+01 1.2352978337199444e+01 88 -54 -58
257 1 9.3281318111696159e+00 1.1955464004195656e+01 -4.0027221143724034e-02 -24 10 50
273 1 3.6993942058919900e+00 3.0559073819364113e+00 1.5682686483930427e+01 80 176 122
332 1 5.8839061606410406e+00 7.4357427267935083e+00 1.7335569701043660e+01 12 -20 -99
2 1 2.8053013430571799e-01 2.3040945085192956e+00 2.4611128434740785e+01 -48 10 -16
480 1 1.0296989973423090e+01 2.7899739807182371e+00 2.2184875484318496e+01 -1 -53 72
57 1 2.4407841163030575e+01 3.0923823072947694e+00 1.6885190045683501e+01 -35 -8 31
427 1 1.7687139547957905e+01 1.9633765463821975e+00 1.6883128522939906e+01 120 -16 16
425 1 2.1744180468808430e+01 1.3032169797008277e+00 2.2125746789605152e+01 73 38 -8
255 1 9.2724983760237247e+00 5.0635792494755458e+00 2.1029007565578084e+01 -135 4 76
400 1 1.6001550642151436e+01 4.7573818183434531e+00 1.5652377222105118e+01 55 15 -25
97 1 6.7545569369855478e+00 1.0360095111495719e+01 1.6780765180941536e+01 21 56 -16
74 1 2.5930051004097328e+00 5.6567333939683735e+00 1.4641839340693586e+01 -5 59 -15
182 1 1.9574380053724887e+01 9.5846155268914650e+00 2.3888676268269975e+01 119 48 48
343 1 2.7630226835286509e+00 7.9583494410092293e-01 2.4729981369048311e+01 -65 22 141
28 1 2.0490457687113945e+01 1.0975468815573311e+01 1.9616151462706881e+01 14 24 27
491 1 1.1350786356108646e+01 8.8160531785035516e+00 2.1532934518792345e+01 -35 -31 -17
233 1 3.9573291149795207e+00 2.9605025081957381e-01 1.6174767023482502e+01 -14 -33 -25
408 1 1.9364615503265277e+01 5.2059961605332514e+00 2.3092687436400460e+01 -140 27 55
471 1 1.0799533518084020e+01 8.8271678653558467e+00 1.7274891017442606e+01 -81 -20 22
493 1 1.7733865595324346e+01 4.8777448116135735e+00 1.8053086063782516e+01 -51 92 48
275 1 7.7878839791670744e+00 9.0623267722502299e-01 1.9621140491185550e+01 33 -10 23
232 1 4.0866292568467042e+00 2.2746546883265450e+00 2.2697691906181142e+01 91 40 29
118 1 1.9502807666204667e+01 1.0981783291282385e+01 1.3173469281702991e+01 -22 139 -71
155 1 1.7242916547966750e+01 2.1066318490070657e-01 2.0455528132584142e+01 -45 36 30
107 1 1.5093575409013159e+01 4.7165070074073858e+00 1.9948183919853321e+01 -34 59 -151
197 1 2.4176880054239916e+01 5.8982661708214382e-02 2.2894442178370248e+01 18 29 54
119 1 1.8260959331249438e+01 1.1971927175961337e+01 2.4531532063999535e+01 46 73 99
30 1 8.6241461706452078e+00 4.5955798248453347e-02 2.2272121846457928e+01 -77 11 -3
18 1 2.1573138545468851e+01 7.6228430645171645e+00 1.7591507066603626e+01 51 55 45
154 1 2.0649286100440527e+01 1.7239455353553543e+00 1.4639508147405714e+01 100 -36 1
412 1 2.3114886759231723e+01 3.4430016216769914e+00 2.3062041688172002e+01 -19 14 -66
454 1 1.3325249113463173e+01 3.4205957331297285e+00 1.8164209237748388e+01 -45 50 8
129 1 1.8695353740055054e+01 8.5470203540478575e+00 1.6059733803125170e+01 -38 -30 -83
64 1 1.1493894129434714e+00 4.9790334464576889e+00 1.8590371192130391e+01 -44 61 11
498 1 1.1739093936461577e+01 3.9194455913265647e+00 1.4601413603210593e+01 36 11 8
467 1 2.1709922418913770e+01 1.0272219868100850e+01 1.7151443614236442e+01 -63 96 47
153 1 2.3776557744431059e+01 1.0444014599922527e+01 1.3503802645111174e+01 12 -23 68
452 1 9.3357907700088152e+00 4.1734259006753831e+00 1.3208001544016225e+01 22 5 83
62 1 1.3595869613653964e+01 -3.4602400726711835e-02 1.7407614182712585e+01 68 -18 -39
103 1 6.6904946601668858e+00 6.9120208965609664e-01 1.5859693337023826e+01 -14 43 -42
326 1 2.2200037529680916e+00 1.0056492697184327e+01 2.0907025942104923e+01 35 122 -4
366 1 8.4410137281530275e+00 1.0531588938816993e+01 1.3798782075145899e+01 161 -1 -58
269 1 1.1921601376866676e+01 6.4069763915880289e+00 2.0854924600239407e+01 19 -29 9
351 1 1.3776441270592333e+01 9.9613959806504333e+00 2.2631342125985185e+01 19 -26 -61
230 1 3.4347158976304444e+00 8.0502114773182676e+00 1.5818477696392733e+01 3 -25 -133
66 1 1.5009254900345649e+01 1.0206711334246130e+01 1.4857827536181349e+01 -7 42 -35
297 1 1.9523006176203936e+01 8.0846729969218121e+00 1.3493530058419326e+01 15 31 -9
262 1 6.8475227265943799e+00 1.1632477271284234e+01 2.3760186552687649e+01 13 53 -45
16 1 1.1920998810883170e+00 9.9953372469358506e+00 1.5276042566261800e+01 136 95 4
314 1 2.3822690303853719e+01 7.0661028790822211e+00 2.1046050202505633e+01 -8 17 -11
271 1 1.5672792484669536e+01 7.6191947578028687e+00 2.2636582357023208e+01 43 36 -53
98 1 1.2341786687157676e+01 1.0921913696808259e+01 1.4377074383861896e+01 74 69 -3
479 1 1.3003824881402468e+00 1.9285188350104672e+00 2.1550081385192101e+01 -29 -8 -56
414 1 1.7347217184055417e+01 6.1512689847467064e+00 1.3561737592696874e+01 108 13 52
174 1 1.7910714577935138e+01 5.3415796381028127e+00 2.0846111505406391e+01 16 99 -20
312 1 1.1370493792121538e+01 2.6142646127771224e-01 2.1894888676818873e+01 -6 21 21
458 1 1.0985510395453817e+01 9.9364954886023682e+00 2.4321511561084407e+01 -34 42 -2
339 1 3.7488715091160513e-01 2.2512413384637386e+00 1.4097805295509707e+01 27 44 -9
384 1 2.2403697215791261e+01 1.0658072802089038e+01 2.3748990181038828e+01 0 1 0
47 1 2.1567937768728058e+01 6.5148631397203642e+00 1.2722551480393092e+01 18 65 -105
170 1 9.9108326868155086e+00 4.7628855474555145e+00 1.6814617942284571e+01 16 40 -13
286 1 2.4275621862935083e+01 1.0203559247944971e+01 1.7342924177441631e+01 47 -11 15
167 1 1.9847372335884799e+01 8.9993496291531638e+00 2.1172617709468469e+01 28 -25 0
44 1 7.7123074840542349e+00 3.1889421820793156e+00 1.5309568110875201e+01 -21 -36 83
136 1 1.3236055406013616e+01 6.3068811500193824e+00 1.3651871856423313e+01 45 -62 105
508 1 1.1523792448613236e+01 8.1778048766773903e+00 1.4585364535779712e+01 9 17 -61
315 1 9.7417906537337888e+00 2.9353466734203848e+00 1.9078864613280082e+01 -67 96 76
206 1 4.3504394448660086e+00 8.7766596674495734e+00 1.9774267560075067e+01 15 -90 30
121 1 1.4038005624492904e+01 2.3092214900819776e+00 1.5764459150029987e+01 -1 3 14
179 1 8.5047314565298535e+00 1.2057860273872199e+01 1.8158052209764634e+01 -74 -74 -45
117 1 1.7023414676724316e+00 1.2130889927350756e+01 1.3509847907989434e+01 52 47 89
288 1 6.6256297803790147e+00 5.0029268532729461e+00 2.0728877125814272e+01 -65 -29 -86
406 1 1.9444445932509396e+01 1.9971815501865957e+00 1.9406016681209998e+01 38 146 -4
331 1 3.3293288137723631e+00 9.8793369447432671e+00 1.3364262139772398e+01 27 16 -15
266 1 6.4298300114532596e+00 4.7532925059157654e+00 1.7222950656767026e+01 28 -74 17
501 1 6.0814207499573136e+00 4.2116136624285998e+00 2.3440574975622262e+01 29 -25 -7
444 1 3.7060293630611003e+00 3.8515314539625325e+00 1.8255975458497147e+01 2 -28 28
89 1 1.6422112362101345e+01 1.0393239285951681e+01 1.9466397340579029e+01 -17 9 -181
24 1 2.4518077731921281e+01 9.6352228225080054e+00 2.0290236185338991e+01 21 -61 59
102 1 1.5345393243564056e+01 1.1418619742061788e+01 2.4574359368747956e+01 10 -12 19
256 1 5.1652845039729467e+00 7.6777969445377030e+00 2.4100200626620605e+01 47 12 -36
260 1 2.4541627153812158e+00 6.7838146979655942e+00 2.4359160467003818e+01 -35 -2 57
20 1 8.6258609885135833e+00 7.2793525844568769e+00 1.6768415873135737e+01 126 25 24
402 1 5.5622092842662534e+00 3.0149001414262626e+00 1.3530951756538188e+01 41 61 -28
354 1 1.7347602878928974e+01 7.9855285024624774e+00 2.0521867740184341e+01 3 46 17
137 1 4.7774217490662965e+00 6.7926814410052341e+00 2.1440390303278654e+01 1 -28 56
334 1 1.4188187372111685e+01 5.3585045647166805e+00 2.2558782122652879e+01 43 75 22
132 1 2.2619379260199807e+01 1.1664290671743741e+01 2.1404140793365706e+01 -50 0 -76
216 1 1.9766992268489084e+01 5.8366836620723976e+00 1.6364108108195360e+01 -41 6 166
14 1 2.3395765127980866e+01 5.8196755450765920e+00 1.6339731874720869e+01 46 -23 37
325 1 2.1351448942424817e+01 6.5842977753331056e+00 2.0127533143145286e+01 -76 34 42
350 1 2.2988001726818936e+01 9.7725871144334109e-01 1.5895630388954341e+01 21 5 48
161 1 9.8002563393073205e-01 8.9710886583794913e+00 2.3470751856490971e+01 31 -41 41
65 1 6.1235257106189396e+00 1.1001136361353993e+01 1.9486056209413427e+01 -40 72 -17
338 1 2.9750285892925903e+00 5.0694094504428397e+00 2.2278433846766966e+01 -1 10 38
434 1 9.2774773997732995e-01 7.2786642719350700e+00 1.6808431740312997e+01 37 -33 -72
15 1 2.1332865100092619e+01 4.3018705720944856e+00 1.4648760360217592e+01 5 -11 -134
263 1 1.6190760410848455e+01 8.9595192525770084e+00 1.6850607527659243e+01 18 128 3
424 1 1.3782319150890862e+01 3.5346357532659511e+00 2.4533748064250894e+01 36 4 -15
418 1 1.4462479732763599e+01 1.1874768186254729e+01 2.0835173756802149e+01 -68 -76 -13
41 1 1.5383769108215708e+01 7.9788998630282908e+00 1.3402065972755594e+01 69 -8 39
317 1 1.7402837072896411e+00 -3.7356953876536841e-03 1.9392959239666055e+01 114 -23 -25
220 1 2.4075261779088841e+01 9.4535402248247313e-01 1.8651451097456125e+01 46 -4 1
422 1 2.4851462376278882e-01 4.6400121774679075e+00 2.1170046351184432e+01 -6 62 66
285 1 1.9777281811235277e+01 1.0889417415077347e+01 1.5674685852835381e+01 -30 75 -27
373 1 1.0868250952663859e+01 1.0547673651140490e+01 1.9097950954124791e+01 49 43 -55
76 1 1.5344510371346614e+01 6.5957016119429062e+00 1.7347304103257272e+01 23 43 17
78 1 1.1868657116495820e+01 1.3274708348074025e+00 1.9128060467734677e+01 -18 -48 -24
217 1 1.5418230817613036e+01 4.6021228884046050e-01 1.4195503309667385e+01 97 -43 81
207 1 2.3253387866465296e+01 8.0635427091230252e+00 2.3642312166816424e+01 25 -35 0
123 1 1.9760098707665001e+01 5.6951908519666572e-01 2.4068278926889064e+01 -70 1 -1
292 1 2.0896950291018591e+01 3.7883443494503304e+00 2.1036260568855369e+01 -13 20 66
135 1 1.8027788243043048e+01 4.1937011099715837e-01 1.4412004017189194e+01 0 57 -61
439 1 4.5175975656729959e+00 1.6924416255939434e-02 1.9175597897461657e+01 28 -41 -72
395 1 1.2294042981189287e+01 6.2151339546140631e+00 1.7707806369230795e+01 -44 39 -55
31 1 5.1432462414716147e+00 2.3607938131091908e+00 2.0015677420625536e+01 -56 -11 122
211 1 8.8593003131039616e+00 7.8491826079629030e+00 1.3936260429684021e+01 -32 12 -23
347 1 1.7132148507467889e+01 6.1902454345658811e+00 2.4829526694101162e+01 -117 8 -8
205 1 1.0814949142018280e+01 3.8160378145268252e+00 2.4872332045685443e+01 -30 -12 -59
423 1 3.4348591891510609e+00 2.1273365869241424e+01 1.0791274946903386e+01 -12 4 63
468 1 8.3541687483627793e+00 2.2005619635417276e+01 9.9151448405213038e+00 65 1 -48
239 1 1.2014296850337367e+01 1.8166176833891512e+01 1.1663221079655818e+01 56 -21 15
46 1 1.9254695285361225e+00 1.5049400156233451e+01 2.7346969409824768e+00 42 -10 69
200 1 9.9132572702179722e+00 2.4672025325482373e+01 9.7487180880909765e+00 64 80 -21
431 1 2.0181076960719437e+01 1.8805881196900295e+01 5.0989660985471741e-01 -74 -40 -18
416 1 2.1307122202137059e+01 1.7111425612513550e+01 2.4333010965654065e+00 -12 -30 25
486 1 1.4215440069603727e-01 1.7282690617698726e+01 1.1215155655088878e+01 52 17 -20
258 1 1.3306194003033587e+01 2.2403755627235377e+01 1.0398494727835759e+00 126 -58 75
507 1 2.1101329448855424e+01 1.9325986750381297e+01 1.1253115976253957e+01 -43 18 -14
177 1 3.2793381522836178e+00 1.8647660008157978e+01 1.0983242748708411e+01 -19 -42 41
465 1 2.2895317571728484e+01 1.4923330523619134e+01 7.3252049851198564e-01 32 42 39
94 1 1.4276556008196305e+01 1.6873212433875324e+01 6.5440684694776676e+00 -63 34 47
35 1 1.7464545775957781e+01 2.4590065402297846e+01 8.6635001573603159e+00 -50 35 -49
281 1 1.3202331661703205e+01 2.1625535946311494e+01 1.0889453316337097e+01 36 -32 98
199 1 2.3078506398094561e+01 1.9469748783596366e+01 8.7306444394857579e+00 24 66 -18
329 1 6.8414043008197734e+00 1.8135290138895563e+01 7.7216407721173441e+00 8 -129 -59
394 1 1.6179377677229041e+01 1.6353387429141115e+01 4.4799815919123445e+00 -117 0 -18
413 1 2.4636389892208399e+01 2.1906736138001833e+01 6.6069081768774724e+00 -27 9 -28
248 1 1.8963133696292793e+01 1.3739458306916585e+01 8.8110286116378127e+00 -42 28 7
193 1 1.5517910954981268e+01 1.7952599856869249e+01 5.2186123195330791e-01 -77 16 -6
7 1 9.1895307926173153e+00 2.3282861172350394e+01 3.0581130723700847e+00 54 12 56
420 1 2.4156412861635019e+01 1.3198444555251882e+01 4.8970038068858930e+00 39 -46 116
280 1 4.1914039857752228e-01 1.5991857345167704e+01 5.2238350430105491e+00 13 -54 150
151 1 9.0313407126515113e+00 2.3795924543607704e+01 5.7420652244641222e+00 -49 -34 0
287 1 1.9927560005898165e+01 1.6925186706460650e+01 1.1907171844070039e+01 -22 -10 -6
246 1 1.9249691742826137e+01 1.4179087066180534e+01 1.1663582165836200e+01 82 60 103
120 1 5.9730316146054978e+00 1.4541128345200837e+01 8.0942586884083880e+00 -2 -77 68
253 1 1.9094470097814188e+01 2.3154205582996248e+01 4.0472430445406182e+00 5 20 2
4 1 1.8657999891678848e+01 2.0790620977795029e+01 1.0376291753331515e+01 25 -79 7
362 1 8.9565179351836193e+00 1.3467862275575960e+01 6.6372325355090966e+00 -49 -30 -65
415 1 2.2049208510671463e+01 2.3267355426870061e+01 9.7873247597555562e+00 -56 -50 18
10 1 1.6687130238690443e+01 2.2609172362590883e+01 2.3322508311745085e+00 -87 58 -13
450 1 1.3314672038836981e+01 2.0039968953717512e+01 7.0455260826791140e+00 102 -87 36
189 1 1.9546594241196004e+01 2.2624243365043391e+01 8.2419618453177694e+00 120 -45 -51
93 1 2.0792958568598173e+01 2.0803302158717365e+01 4.1415791639315671e+00 -34 -10 17
214 1 9.1410230743005467e+00 1.4717033373008761e+01 2.7838441585774990e-02 24 93 16
156 1 1.0412476286656135e+01 1.5210836483868864e+01 2.3675597223159683e+00 46 39 -13
293 1 3.8587608955163777e+00 1.2776276341202188e+01 7.7023173909748657e+00 7 124 49
441 1 1.5719254449918507e+01 2.0609235216806866e+01 3.7961866529979527e+00 1 -67 -9
67 1 2.2681121414447407e+00 2.3214993709155927e+01 2.4265713612840671e+00 -19 -84 -43
238 1 7.7007851647774332e+00 1.9500627881106553e+01 3.9177261650762998e+00 55 10 -18
358 1 1.3916401071543843e+01 1.9867524982340136e+01 2.2565400659722714e+00 -31 89 40
91 1 2.4720376674669041e+01 1.3319000576798823e+01 1.8721963511411055e+00 -36 -2 28
223 1 2.4053694768855514e+01 1.9251269327271650e+01 5.9805552834097044e+00 101 41 8
470 1 1.6203912291438570e+01 1.9648332475267431e+01 8.7133740988689539e+00 17 -37 -120
311 1 7.8734945898876738e+00 1.5842467689161158e+01 3.5289572776296159e+00 13 -44 16
140 1 2.1821535714113436e+00 2.1860307746656716e+01 8.2372768343469964e+00 -61 38 1
272 1 3.3771887767490703e+00 1.9780234690019540e+01 5.7034060938225393e+00 -24 7 103
194 1 1.1158942198343825e+01 1.4108401273030950e+01 1.0402164414012054e+01 43 107 -8
70 1 9.2556010131089064e+00 2.1081493195122015e+01 5.8251234728448509e+00 85 -4 17
146 1 1.3844731013381667e+01 1.9190803036694881e+01 9.6920952007731920e+00 -9 -6 6
328 1 7.7957426094381352e+00 1.5932408786754266e+01 1.1122347444097366e+01 79 78 -3
511 1 2.7092086991462541e+00 2.4025702788712387e+01 1.0112199387550278e+01 45 -1 97
487 1 1.0858954659609632e+01 1.8916273546071011e+01 6.6945368567941719e+00 38 40 -18
448 1 3.0505223993044925e+00 1.7612456650812376e+01 1.8863336276643297e+00 11 -40 -12
429 1 1.5194835043194649e+01 1.3969007291437286e+01 5.0062623172493579e+00 -28 -36 50
183 1 1.0589497331594508e+01 2.0555031892862765e+01 1.1119244161659505e+01 29 95 13
42 1 6.5865097316471841e+00 2.4126810077350228e+01 9.7581714452392330e+00 -5 68 -72
436 1 8.6921005951030459e+00 1.7603145751354305e+01 5.6130825185267108e+00 41 70 14
464 1 4.0722154256896363e+00 1.6189943559334068e+01 9.8619088405128146e+00 16 27 -30
68 1 6.2824327562154112e+00 2.0800991677987483e+01 1.1007625491250279e+01 0 -19 18
37 1 1.0500329820321671e+01 1.7938877104518760e+01 9.2611624673986199e+00 49 22 -37
178 1 4.1769560994925445e+00 1.4243640632253411e+01 9.9299131724606071e-01 77 17 -64
126 1 2.3567112098702104e+01 2.3867387398525231e+01 5.5217262363868680e-01 -42 -35 -48
330 1 1.0330630094367164e+00 1.9389199572007279e+01 9.1939088176700974e+00 -11 21 35
348 1 8.9282662748418744e+00 1.5862354631582370e+01 7.9632076191255656e+00 -3 -21 22
368 1 4.9984041389132114e+00 1.6547285965091817e+01 6.2227039292050748e+00 48 -34 37
80 1 6.7288220407112513e+00 2.3092003699553764e+01 1.6787706931661677e+00 30 36 14
382 1 1.4978276663687493e+00 1.2550862192946658e+01 1.0738406632144400e+01 43 -15 55
386 1 1.1006311059269423e+01 1.2442929249775680e+01 8.3052668677153889e+00 81 -51 -7
259 1 2.4661891589962615e+01 2.0820652462345180e+01 3.9351769610290903e+00 -6 52 29
485 1 1.9105945858536224e+01 2.1126331420146457e+01 1.4845072344897330e+00 -7 -14 87
85 1 2.3108287150036965e+01 1.3909129258429704e+01 9.1977625944402224e+00 5 48 -100
294 1 1.7574360773482155e+01 1.6993599041078063e+01 9.7009733971934722e+00 30 32 -79
142 1 1.2668009092434531e+01 1.6126840820100789e+01 9.0272627782473425e+00 27 29 60
187 1 1.7179310220772763e+01 1.8336494912481740e+01 2.7893060989963545e+00 7 9 -14
404 1 2.3608768779452713e+00 1.5082913541584842e+01 7.2723104324370187e+00 -17 125 48
365 1 1.2155867031920295e+01 1.7298785377423272e+01 4.7107944764254688e+00 -7 82 -32
306 1 2.2061639813089279e+01 1.2954507379483776e+01 6.6663851934165947e+00 -4 78 -61
496 1 2.1774700229397837e+01 2.2493493046996484e+01 6.2038408720090006e+00 -3 -22 27
180 1 2.2648055413176515e+01 1.6993439071868970e+01 5.1337147800035119e+00 2 283 -30
282 1 1.9603232203852983e+01 2.4778275070316191e+01 1.0850918175649680e+01 41 26 73
381 1 5.5657541509029329e+00 2.0843704384811659e+01 2.2192239491160932e+00 23 -108 42
196 1 1.1963752546007305e+01 2.3990112517580080e+01 1.1504060102487324e+01 12 19 15
492 1 9.4247098936752014e+00 1.9496448514877216e+01 1.5968451511464801e+00 -15 -18 51
71 1 1.8784169485050079e+01 1.5029688466869281e+01 4.2487182272801940e+00 66 -71 -55
319 1 1.4529779355583360e+01 1.5808953775705152e+01 2.1907227565231464e+00 -34 -5 47
72 1 2.1006060337574120e+01 1.7735968122099074e+01 7.5259925691693592e+00 16 64 48
8 1 7.6851341237814952e-01 1.4908579806674732e+01 9.4422076266795898e+00 -19 17 -30
380 1 1.2970307635629226e+01 1.3989504142681431e+01 6.9834999411052507e+00 -10 83 55
375 1 1.4792371378529044e+01 2.2956209226505315e+01 5.2250796405644833e+00 14 55 -122
45 1 1.1603031380879017e+01 2.4366791585108047e+01 2.5838274042421006e+00 -2 82 -78
100 1 7.1638231668341010e+00 2.1098397322234838e+01 7.5500439573462632e+00 40 -124 -13
302 1 4.7475953658553651e+00 2.2103216869292957e+01 6.8309149394105431e+00 42 -67 -28
270 1 2.4713426251243478e+00 2.0621952759765300e+01 2.9264814263521663e+00 20 126 113
50 1 6.9561720457518232e+00 1.8524023076579823e+01 5.7547150521511548e-01 7 27 -35
56 1 1.5949275161840104e+01 1.9108649601212683e+01 6.0851471233558270e+00 -8 77 26