LAMMPS data file via write_data, version 4 Jan 2019, timestep = 3000000

216 atoms
1 atom types

4.2946567330755947e-01 1.8680534326694318e+01 xlo xhi
4.2946567330755947e-01 1.8680534326694318e+01 ylo yhi
4.2946567330755947e-01 1.8680534326694318e+01 zlo zhi

Masses

1 18.0153

Atoms # atomic

64 1 1.2900076231769262e+01 3.4723139125428708e+00 2.1951970901858493e+00 -9 1 13
137 1 2.2175694373455732e+00 7.6828953257555908e+00 3.7804023207095869e+00 -2 -4 -7
143 1 3.1306703061324970e+00 6.8726727449610463e+00 8.5204733973704130e+00 -6 7 11
177 1 1.2773318760281015e+01 1.0986027154664066e+00 3.7172459906989888e+00 5 -6 11
162 1 3.0438688426174751e+00 2.4502047543091807e+00 1.6694879107988019e+00 6 -3 -11
101 1 1.4693657754722116e+01 9.4042919786949248e+00 9.3435630641290839e+00 -4 -2 7
196 1 1.2259297156248790e+01 6.3126223497482226e+00 9.6150456295610864e-01 15 -1 13
208 1 9.5963823594759834e+00 6.3594267347873750e+00 1.9237289837702005e+00 -6 4 0
54 1 7.2045497281851194e+00 2.3519612446320481e+00 5.6974211719804861e+00 0 12 -7
17 1 8.9188713311506362e-01 6.2021862571703013e+00 4.9783888025615097e-01 2 7 11
205 1 5.3525442799885754e+00 5.6166022210792859e+00 7.6523833041445171e+00 -2 14 -3
88 1 1.4254267829382221e+00 4.7829945583264983e+00 7.8001818521401161e+00 -4 -17 2
126 1 1.8230215255801689e+01 3.3627429970997524e+00 5.2624292810524551e+00 -2 10 2
180 1 1.1601553714119365e+01 2.7514518571464244e+00 5.6532069913772176e+00 11 -7 -6
148 1 9.5401629444593024e+00 8.2953552547806382e+00 8.4521866628797984e+00 -8 1 5
134 1 1.5462280436250456e+01 6.8034433588147802e+00 5.3982965838227175e+00 15 -8 1
178 1 3.4155401994927654e+00 7.8498728418645589e+00 1.3014492237628632e+00 -6 9 4
164 1 9.5457631288891864e+00 2.8849472215836647e+00 7.2697924629093817e+00 -4 2 -12
26 1 9.3713945327629808e+00 5.4081628473857117e+00 5.8241606960534469e+00 -6 -5 -3
159 1 1.0624711289171666e+01 7.7647797338241160e+00 4.5060611695895458e+00 17 10 -11
206 1 1.7284240473096098e+01 3.8221476449815004e+00 9.1064470440811469e+00 10 -14 -10
187 1 8.1242719249942361e+00 8.0658669980983688e-01 3.8953944297526313e+00 -10 -8 -17
45 1 6.1382870674835779e+00 4.1314395954383523e+00 1.5433548720819728e+00 -2 -12 0
14 1 5.3060477670939195e+00 4.0038793842376919e+00 4.0726109994892488e+00 -12 -12 2
201 1 6.7323678385980186e+00 6.1452977604936612e+00 5.1601239140554336e+00 10 0 8
25 1 1.0438719650077726e+01 3.7081120400812329e+00 3.3087719444832557e+00 4 -1 3
76 1 1.2129300898496110e+01 5.8458644472815191e+00 6.1178467296506662e+00 4 6 21
175 1 9.4617412576052686e+00 5.6397297029380491e+00 8.6906646340991784e+00 -5 -5 0
2 1 1.4026799325175929e+01 4.3237166784689194e+00 4.4547202069486644e+00 11 -5 4
57 1 1.3432925060135979e+01 7.6600161296736573e+00 3.3907837181719684e+00 -15 11 -1
16 1 1.8537676578282309e+01 3.0393580994419604e+00 7.8374342251016871e-01 -8 9 10
63 1 6.1879012299994116e+00 1.6729686761345359e+00 8.0735887492201446e+00 9 -3 -14
91 1 1.4193392950549422e+01 9.0603333282028071e+00 6.6612863360488141e+00 -8 -3 3
193 1 1.7316138336836026e+01 9.1726781930981982e-01 8.5831363023068725e+00 2 3 5
185 1 1.7418181067876574e+01 7.6096805822401334e+00 3.2645263240768920e+00 -5 -10 -1
108 1 3.4492665302862724e+00 2.4744046648770204e+00 7.5829746289306454e+00 -15 3 4
174 1 1.8490490145156123e+01 8.5271660831096363e-01 6.0821032389618335e+00 -3 9 -18
55 1 1.7908096082593538e+01 4.8904153709450506e+00 2.8966831198521099e+00 -3 7 7
130 1 1.3374048505194830e+01 6.7969327581788725e+00 8.4937459034100424e+00 -8 -3 3
86 1 2.5937594216899558e+00 4.7242541255993924e+00 3.4021495290852179e+00 0 2 -5
10 1 1.8036735659979932e+01 6.7932101505388696e+00 7.1441039940216857e+00 5 7 -7
7 1 6.7482695484978068e+00 7.9717286751885510e+00 8.2595394365660795e+00 10 13 -1
47 1 1.6097735151743507e+01 1.7488692784473181e+00 2.2243072097332712e+00 8 -2 0
147 1 6.4073375212933135e+00 9.4966342444389955e+00 2.8841865393305315e+00 8 7 -2
144 1 1.5830360858772867e+01 3.9497443211733572e+00 6.5557727401547927e+00 12 -8 9
213 1 4.9440199702565941e+00 8.2502843573411635e+00 5.1044117179472277e+00 5 -1 -12
149 1 8.6354403299331963e+00 2.5685805993246564e+00 1.6000349132345675e+00 -4 0 7
73 1 1.3340810864644620e+01 3.7898584356339526e+00 8.1122216376756526e+00 10 -5 2
8 1 1.4917350118581407e+01 1.6134136595776027e+00 5.0349889076507086e+00 2 7 2
168 1 1.0586107591240765e+00 9.1310670871981756e+00 7.4222173884271250e+00 0 4 8
155 1 4.4167280685229997e+00 1.2121512209635907e+00 5.0650492571117702e+00 -7 -1 1
195 1 1.6861176982536293e+01 8.1560428449947704e+00 6.8287858945355939e-01 10 6 5
69 1 7.1556964125579414e+00 4.1215389574382995e+00 8.9737893632820604e+00 -11 9 5
87 1 1.3233106754388748e+01 7.3844408842529741e-01 7.0014705361671759e+00 -7 0 6
52 1 6.2117796857299803e+00 6.8418385705366340e+00 1.3287934354613387e+00 -22 -2 -1
131 1 1.5535284189197219e+01 4.2897025950845622e+00 9.3665386382683258e-01 -1 -11 -10
127 1 1.6684901950367447e+01 6.7453786649972747e+00 9.4582927555012883e+00 7 -15 3
165 1 1.5270979446175366e+01 2.1431071369418966e+00 1.0488859084867958e+01 9 -10 -5
49 1 1.8185080192445739e+01 5.9817564642880034e+00 1.1692506072014858e+01 4 3 -2
176 1 9.3298084780028177e+00 1.2558809162349567e+00 1.2342568972659008e+01 0 -8 1
85 1 1.0829473156238439e+01 5.9476774483831578e+00 1.6747621230450797e+01 -6 -13 -9
124 1 9.7851361494954325e+00 8.9954789866563090e+00 1.8387170989955720e+01 -13 24 -9
188 1 5.0709996363011589e-01 3.0041604102317576e+00 1.2112832295785378e+01 -9 4 -5
40 1 3.4396992875796659e+00 3.8951015783247938e+00 9.9945601682700147e+00 2 -9 6
122 1 1.1877483712434055e+01 1.1813188567958413e+00 1.4143238100831017e+01 15 -10 2
60 1 1.4538938819542702e+01 1.3350156019390829e+00 1.3383357973915789e+01 -11 -7 12
204 1 2.6524838678295848e+00 4.5016343615494447e+00 1.3631008217677055e+01 -14 8 8
216 1 1.4124721427139892e+00 1.4947263995309938e+00 9.8665089116404054e+00 7 -9 -2
173 1 2.3727953047702157e+00 7.2221507101238727e+00 1.5073334746493618e+01 5 -15 -6
157 1 7.4749601412260978e+00 3.9347279348047222e+00 1.6201411179408488e+01 4 0 3
46 1 8.2208950429706871e+00 6.3879348847998125e+00 1.7628573065125053e+01 -8 7 -10
140 1 1.6229009735209985e+01 4.0258187751174805e+00 1.2898160572848878e+01 -4 -10 -6
202 1 6.5777089483746121e+00 3.9836536062807046e+00 1.3639769833551703e+01 7 -5 -9
50 1 3.0446290680264263e+00 5.4251684870953545e+00 1.7211119216169941e+01 -3 -3 3
97 1 9.7233967299313804e+00 1.6707487856538181e+00 9.6487650541480292e+00 8 11 -22
78 1 1.2388616563791546e+01 1.2789572064136276e+00 9.7383928386148071e+00 1 -2 -7
146 1 4.7601571692855442e+00 7.6640783980632872e+00 1.6934946990918981e+01 -4 -8 2
115 1 4.6996554144164522e+00 3.3730567775922755e+00 1.7708197055879900e+01 30 0 -10
118 1 3.8742540457081502e+00 1.9146526351241646e+00 1.3842964872205966e+01 6 -2 12
90 1 9.3678881351854759e+00 5.5092030430412260e+00 1.4297071317713456e+01 -10 5 -5
48 1 1.8090892868344774e+01 8.3353231485646984e-01 1.3540618943249109e+01 -3 7 -9
35 1 1.6557912948279984e+01 6.7748448807789110e+00 1.4147296957818565e+01 6 13 8
152 1 1.8630875628477497e+01 3.3620051391781733e+00 1.6387891642673019e+01 -13 2 1
82 1 1.4858667386040512e+01 6.5656301708500342e+00 1.7960328006272242e+01 3 -4 7
200 1 5.8835392047948458e+00 7.9537918066213846e+00 1.0972144140722362e+01 -18 4 4
121 1 6.6992537479134606e+00 1.0512287734773129e+00 1.3490011278210099e+01 -10 7 -4
214 1 1.1528460060662136e+01 3.9899803912421641e+00 1.0318703353435643e+01 3 6 10
191 1 9.5516744705676047e+00 2.2686800932462727e+00 1.7077942996369764e+01 -13 -18 -4
114 1 1.8251115653165783e+01 5.8999302787435983e+00 1.6106855459982739e+01 2 -10 -3
211 1 1.6417893632340611e+01 1.4098363048960878e+00 1.5731339179627414e+01 7 -14 11
158 1 1.2128517983640362e+01 8.0060199525543112e+00 1.3152072180058653e+01 3 2 -13
167 1 7.1474163231840722e+00 8.5777833935977164e+00 1.5942526233489389e+01 11 -5 -5
186 1 1.1632910263547444e+01 8.5785906601048900e+00 1.6091924875741292e+01 -5 -4 13
102 1 1.4253481822519415e+01 5.0985260882933590e+00 1.0533991396023289e+01 18 3 4
80 1 2.6823780831664856e+00 6.2018403043429755e+00 1.1471294817185518e+01 3 -4 -5
9 1 5.8039644560900987e+00 3.3095730755064658e+00 1.1147167717098961e+01 4 5 -13
125 1 1.4602538986697784e+01 3.8636496599475589e+00 1.6422697001537422e+01 -3 6 -9
66 1 1.2045613159395336e+01 1.7598349821414649e+00 1.8307407845877805e+01 3 18 7
37 1 1.0928917920412527e+01 3.5374931617868328e+00 1.3072161140705637e+01 -4 13 4
41 1 1.3906627896632425e+01 6.7878731319191017e+00 1.5383888580592615e+01 -3 8 -10
210 1 1.1867283665743988e+01 3.4149226306009659e+00 1.6124509042876497e+01 4 7 -3
75 1 1.1151027285394010e+01 7.0458242491053387e+00 1.0552726001494003e+01 -3 -3 -5
27 1 1.3260316731624256e+01 5.2498235522968031e+00 1.3172270607712406e+01 -7 1 2
160 1 9.0978916350405754e+00 8.4109789306952791e+00 1.4341249103686820e+01 -9 -10 1
103 1 3.3361477717132408e+00 9.1230520377982174e+00 1.1266016121978998e+01 2 8 9
116 1 1.7281666172448155e+01 9.3759527511545109e+00 1.3418847730694788e+01 10 -1 -3
207 1 5.6187152980709936e+00 5.5934326590494410e-01 1.1052317386465194e+01 3 9 -3
5 1 4.3242838117871996e+00 8.6585778375976530e-01 1.6525732926789750e+01 -14 -7 -1
109 1 1.9538535018674090e+00 9.4324144325992716e+00 1.3420638702761531e+01 6 -3 13
145 1 1.6576897628613395e+01 1.4689412032356746e+01 1.1397678237686466e+00 1 12 8
166 1 8.6295028537500400e+00 1.3310464160166422e+01 7.3107456380109870e+00 -10 11 -15
153 1 2.8059258471002178e+00 1.7867332141838254e+01 6.9989670114199445e+00 2 -10 -10
181 1 1.5322454298000729e+01 1.4430911443193697e+01 4.9075014322514798e+00 -1 -10 15
119 1 1.2604674172602541e+01 1.1324571814804180e+01 7.3650550664528618e+00 0 -9 3
209 1 4.4186388903732139e+00 1.1562339675560585e+01 2.9135523893709445e+00 -7 -6 0
67 1 5.2679937477144270e+00 1.5923154718968572e+01 6.6850877580596029e+00 9 -6 17
203 1 1.5897490613545267e+01 1.3474964433676385e+01 7.5361829500558413e+00 1 -4 -11
4 1 1.8101568314474925e+01 1.6047504361938508e+01 3.9892234010618068e+00 0 -18 -8
3 1 8.5265202371373814e+00 1.5056060059977364e+01 9.2155995715979366e-01 -1 1 7
11 1 2.4920843371794734e+00 1.6078249138753627e+01 4.7347157075017483e+00 2 12 4
133 1 7.4729867512999593e-01 1.6949938606579835e+01 9.0201235222819989e+00 -8 5 9
1 1 1.3137596637210859e+01 1.2485364734307206e+01 4.6791484556032472e+00 -7 14 13
111 1 1.5602820592460183e+01 1.0684176504730278e+01 7.7632657630491408e-01 10 0 -4
189 1 6.1390840129255064e+00 1.7208027642803046e+01 4.3743563085237493e+00 5 3 -11
171 1 1.5783586301906569e+01 1.1259311972272878e+01 5.3737485991495912e+00 -13 -12 -8
163 1 3.2426284502159852e+00 1.8289027989119020e+01 2.8574884662860458e+00 2 -9 0
170 1 1.7738344791678607e+01 1.3116142451751552e+01 4.2973516175957558e+00 -7 -4 -5
172 1 1.0100314858374622e+01 1.5317641958220054e+01 3.1981919706973927e+00 5 -2 14
183 1 1.0608466703177742e+01 1.8027761359926103e+01 2.4773008528108633e+00 -1 -2 -2
19 1 1.0279016083395531e+01 9.9481773789798478e+00 6.2997398308518271e+00 4 -20 -4
72 1 9.1352727330612034e+00 1.5241856382980197e+01 9.1396329607356819e+00 -15 -1 10
194 1 1.8246515363084605e+01 1.0273425629174190e+01 4.7221306467306166e+00 -7 -12 -5
161 1 9.2102083201884462e+00 1.2119881405665872e+01 4.9373766921878355e+00 1 -7 -4
42 1 6.3802782781787259e+00 1.0179685302078045e+01 6.3771381133885727e+00 5 -3 15
169 1 8.8004739710559647e+00 1.6626848698942865e+01 5.1599272129378546e+00 12 5 2
129 1 1.8428246367870258e+01 1.4602777750663348e+01 8.1727204699972340e+00 -5 -4 -5
199 1 8.1782512995924499e+00 1.7814677575624856e+01 7.4889477298732592e+00 12 2 -3
23 1 1.4192120385085067e+01 1.7119296578307029e+01 2.4408468029394763e+00 7 5 0
190 1 3.5833121164143193e+00 1.6317882098764080e+01 9.4905405842440889e+00 -1 -13 -17
89 1 2.9326641884991900e+00 1.0310105317608853e+01 5.1115825454732207e+00 20 -16 -11
74 1 1.0728532532307170e+01 1.8129953833251207e+01 6.3678104131718909e+00 -1 -4 -7
139 1 1.3133827580972675e+01 1.3872723705911602e+01 8.5687444511057915e+00 0 9 -5
112 1 1.1060168906176209e+01 1.4154984705613575e+01 5.6763826073531272e+00 -7 -5 -11
197 1 4.1141616432691865e+00 1.3918663649861232e+01 3.8410465141643875e+00 -15 -1 -4
30 1 1.6214409764095979e+01 1.7460400832995759e+01 5.7238844854925146e+00 -14 -20 -12
58 1 1.1539290625690455e+01 1.3248235305332416e+01 2.3595760733006346e+00 1 0 6
141 1 1.1428211029673573e+01 1.5787568409422599e+01 7.7871019857765305e+00 4 -10 6
71 1 5.9415829613649196e+00 1.5493983208399502e+01 2.4261914349407050e+00 0 11 11
77 1 7.0390962781435471e+00 1.2476483101424940e+01 3.1946071317853200e+00 -3 12 -5
117 1 1.4964724273033191e+01 1.7458432655973034e+01 8.3256680078328955e+00 -4 1 -6
56 1 1.7720204419792212e+00 1.3718500763577316e+01 6.3273999782670636e+00 20 11 -13
20 1 2.7660349757091920e+00 1.0563388881007834e+01 9.5798351115937730e-01 4 18 -2
38 1 1.6857047465376560e+01 1.7346301881983997e+01 1.6707008780627102e+00 1 12 -17
95 1 1.7094549375906141e+01 1.0942497720844953e+01 8.0528484271931227e+00 1 -3 11
93 1 3.8382280300189859e+00 1.3634909805729675e+01 8.1559863424892534e+00 4 -1 -8
142 1 5.8256941018355901e+00 1.2982566475024736e+01 6.2301590776223046e+00 10 -1 -3
182 1 1.8667726061520165e+00 1.3110488420912770e+01 2.1916649801132015e+00 -16 1 2
151 1 1.4050072964507995e+01 1.4361112794367250e+01 2.6108180628316826e+00 4 -6 8
156 1 1.4329059576406822e+01 1.0485508965141298e+01 3.0184292877924022e+00 1 2 -5
81 1 9.2445974490226330e+00 1.1254965140634653e+01 8.9611855129986271e+00 -3 6 7
43 1 3.7664238799362808e+00 1.4392105100564333e+01 5.2048279276664844e-01 2 4 7
128 1 9.2567396823759172e+00 9.8614590269240647e+00 2.8964015354074295e+00 5 14 4
94 1 6.4108123585672594e+00 1.6406146402331462e+01 9.4101141137467508e+00 7 -1 16
100 1 1.2742908959495482e+01 1.0111515626901019e+01 4.2965601359279759e-01 -2 8 -6
212 1 8.8518082991733475e+00 1.8050585491452850e+01 4.6958394295464245e-01 -1 5 7
110 1 1.3157382194382469e+01 1.7591492554235302e+01 1.1592954171063276e+01 -1 -14 6
104 1 1.3514365515919607e+01 1.1733593796060427e+01 1.6565442997155159e+01 4 -2 -5
32 1 1.5774622505666159e+01 1.7019302660236733e+01 1.2495385532775691e+01 1 -2 9
22 1 9.6183219090989986e+00 1.4179132210445017e+01 1.1787947165302931e+01 6 0 15
79 1 1.0319992337031227e+01 1.2176756320031034e+01 1.3325253289186501e+01 0 2 4
154 1 1.7279679941749846e+00 1.5665434642480291e+01 1.5070815419659427e+01 13 -1 10
6 1 1.4229675190009267e+01 1.2973470091672565e+01 1.3232561085072838e+01 -5 -4 -5
68 1 1.5222951088747250e+01 1.5287978871937703e+01 1.4595136660712512e+01 7 -12 -14
59 1 6.9194859749864897e+00 1.0582823813093448e+01 1.0355697785808914e+01 -4 6 11
84 1 6.8477143981056212e+00 1.3086739702765964e+01 1.2309516058494308e+01 7 -7 -6
132 1 9.2615751221944276e-01 1.3307168605812153e+01 1.0466561719318287e+01 -10 -1 6
99 1 1.3129389318916411e+00 1.0727838898268613e+01 9.9675844334700834e+00 4 3 -6
135 1 3.0684894585818965e+00 1.7308759208061069e+01 1.8634690367037066e+01 7 5 3
51 1 1.2590815261682289e+01 1.4556763312386721e+01 1.1345773621719475e+01 -3 3 3
113 1 5.3189100207575848e+00 1.4761583388697074e+01 1.6455172486642930e+01 -10 -5 8
44 1 6.9478479327409692e+00 1.1355062250045290e+01 1.5920927282234778e+01 -15 -14 6
198 1 5.9458647139521548e-01 9.7372573052354312e+00 1.7922387708529882e+01 -2 14 8
15 1 1.8531391129426929e+01 1.3767320552914791e+01 1.3138752447641737e+01 -8 3 -7
83 1 4.1801332441901522e+00 1.1728043175039177e+01 1.0048751906161090e+01 -15 -11 -15
53 1 2.9494111111810435e+00 1.3169291764190406e+01 1.6283404825304569e+01 -7 4 -7
36 1 1.5146650545432344e+01 1.5353659780515304e+01 1.0038031318268864e+01 6 0 -1
28 1 1.7052629462260711e+01 1.0330788656778434e+01 1.5914290956091408e+01 6 -16 -13
150 1 1.6270880753464567e+01 1.3386976141035991e+01 1.1581881100883553e+01 -1 14 2
33 1 4.0862809674280705e+00 1.0650612798122907e+01 1.6603332332092052e+01 -5 -4 -7
39 1 3.7016709300018045e+00 1.6143319510839774e+01 1.3141447586665935e+01 12 17 0
21 1 7.8076859378074532e+00 1.0793892951337439e+01 1.3449479474684106e+01 -15 2 6
120 1 1.0397660847168012e+01 1.1894210230404971e+01 1.8274598005998484e+01 1 -2 -4
13 1 1.5312920543061437e+00 1.8379578532725205e+01 1.5528884294955041e+01 -9 9 -16
65 1 1.8588352205406668e+01 1.6501366215043959e+01 1.1914533157533631e+01 -13 -1 -10
31 1 1.0469889063436328e+00 1.1718800281493282e+01 1.4998192546868049e+01 4 2 11
105 1 1.2180995447292082e+01 1.4160190893610842e+01 1.7760009318987791e+01 -5 -5 -2
107 1 9.9709444881653457e+00 1.5551445382985674e+01 1.6778615877248058e+01 16 -11 -9
192 1 2.7788792506141649e+00 1.8253908796908483e+01 1.1693479045674440e+01 6 -9 -5
29 1 1.1065451675791392e+01 1.8033318994411538e+01 1.6694576085241742e+01 10 -3 4
179 1 8.4949555358697388e+00 1.6714712650313885e+01 1.4761398027674089e+01 0 3 -11
34 1 1.2811894664634654e+01 9.9679676823605821e+00 1.1281813077385342e+01 2 7 15
24 1 1.1018971393712153e+01 1.1982408667120993e+01 1.0788959166534569e+01 1 -6 1
92 1 5.4377239427865476e-01 1.8369933867395510e+01 1.8224386769783663e+01 -13 11 14
18 1 1.6352508192259272e+01 1.2557310302802826e+01 1.7339208298978484e+01 15 9 6
62 1 1.6701308452321747e+01 1.0590764238421423e+01 1.1046297300052828e+01 5 8 10
61 1 1.5735544422889289e+01 1.7269591926354984e+01 1.7088417058867499e+01 1 -13 0
136 1 5.6545730379805264e+00 1.7119681048836810e+01 1.5055708367479788e+01 -9 -2 -2
138 1 1.7619011949142390e+01 1.5257733529787478e+01 1.6712729790128087e+01 -3 15 11
106 1 1.2515552555649911e+01 1.0895601583211899e+01 1.4007209952220423e+01 12 15 -2
70 1 1.0559373926777718e+01 1.7054002855771998e+01 1.2829914708175993e+01 5 13 -16
98 1 7.3324434679863932e+00 1.4058461583070146e+01 1.4796228308929827e+01 5 10 7
123 1 4.7620919574805773e+00 1.4435700227730049e+01 1.1399706883393527e+01 -1 0 1
184 1 9.4531917715377407e+00 1.2882071638279387e+01 1.5878080919903852e+01 -19 3 0
96 1 1.3298793933547204e+01 1.6763170000730270e+01 1.7855373300437840e+01 -1 6 -6
215 1 6.0553010433739551e+00 1.6856177669377040e+01 1.8111986253919298e+01 12 6 19
12 1 7.5221843164845517e+00 1.2463000782850244e+01 1.8559028197954881e+01 -2 9 16

Velocities

64 3.9698345416712936e-04 -5.7232799520149091e-03 4.9916108128268523e-03
137 1.4820236414538710e-03 -6.1118571034428609e-04 -8.5365660592924570e-03
143 4.3068930168701711e-03 8.5238553104659059e-04 -1.8789531536576643e-03
177 8.2421425224770827e-04 6.5319430942014254e-03 1.2892347781059230e-03
162 -6.2149294712942546e-03 1.0900155719048240e-03 -4.0048190302682937e-04
101 -3.1124204470114000e-03 3.2293653496253127e-03 3.5572866720918086e-03
196 1.7924272924890641e-04 -1.9295312183491317e-03 -1.7521605031513455e-03
208 -4.0431680431244595e-03 3.9437422034221473e-03 3.7958775625673755e-03
54 3.0464405731231610e-03 3.2436729343939610e-03 6.9248995461916847e-03
17 1.8711393192678864e-03 -1.0000404764152397e-03 -3.6787389635033798e-04
205 -2.0850413374196569e-05 -4.6939834557739243e-03 2.3067167470340959e-03
88 5.3585134577715391e-03 -3.9321209678713580e-04 -9.2909448469591176e-04
126 -2.1875079163867252e-03 3.9678530731176464e-05 -3.0190437771923221e-03
180 -3.5875080486835226e-03 3.3841554798117628e-04 1.9413919845392934e-03
148 3.8561344916365355e-03 -4.7684217525170605e-04 3.0875144411721465e-03
134 -1.8266095906053072e-03 -4.7754763266919832e-05 -4.9907814956352270e-03
178 -2.1997198489129162e-03 9.0378158747252016e-04 3.6211175538061412e-03
164 7.3925114275990370e-03 1.4656854994711409e-03 -3.3316707235137846e-03
26 3.1463122670005680e-03 -1.5506880518715437e-03 -1.2363762188509651e-03
159 1.2167090704508405e-03 -6.6012538137887756e-03 -3.7692076806440712e-03
206 -1.8764985306709155e-03 -3.7382800659236598e-03 7.6950857177774980e-03
187 1.4545723279697027e-03 3.6456234270346193e-04 -4.7741600489069960e-03
45 -2.0512316979873751e-03 -4.9691375011296879e-04 5.1250074252059200e-03
14 6.6808028612149557e-03 -5.3211733137467306e-04 2.2377464866601264e-03
201 1.1045412769809515e-03 1.9573411127333487e-03 -7.6066816669320613e-03
25 4.6860621222570408e-03 -2.4700037011315132e-03 -1.7357225992626056e-03
76 3.7546795453555319e-03 1.3040263678173935e-03 -1.5652880933154849e-03
175 9.3939477590580464e-04 3.7168147212332191e-03 1.7947351268750740e-03
2 -1.6102318660149873e-03 -2.4943816049851930e-03 -4.0297581908018661e-03
57 5.4826335377701971e-03 -2.1596233433213820e-03 -4.4426694978197954e-04
16 9.9878481994069321e-04 -1.5793007854384894e-05 -3.7511944365242272e-03
63 -3.3481094837164681e-03 -4.3279177542124552e-04 3.1602184059092392e-03
91 1.8293996078458101e-03 5.3082385384739025e-03 -3.4959856690553104e-03
193 -5.3994344505081792e-03 1.5437088273789954e-03 -2.0188094524380500e-03
185 8.4370216434358900e-05 -1.0758232499380649e-03 1.3010924185298059e-03
108 5.6643547461049273e-04 1.3073101055537497e-03 2.0528135475107851e-03
174 -3.3244333694938738e-03 -5.3908642619071422e-03 -5.2058396860519213e-03
55 8.3499595684257619e-03 -2.2381169187319001e-03 -1.4524496949243225e-03
130 3.6226028272040704e-03 -1.5596651833398173e-03 2.4742572904563939e-03
86 3.2037360980763895e-04 -2.5423955158954334e-03 4.3944571861679682e-03
10 1.0968799587860627e-03 -7.5287624992367401e-03 1.0673767192810931e-03
7 5.5010111648110482e-04 -4.0629754409560772e-04 5.0517768946256123e-03
47 -2.9185840776490687e-03 3.5707787809467050e-03 5.0328944883917641e-03
147 9.0303726536409060e-04 6.9351402666929345e-03 -2.3793855311215971e-03
144 -3.8705185341754715e-03 -1.6975986347845184e-03 -1.1731087209657116e-03
213 -3.8203427698368072e-03 -1.5468553548443069e-03 -3.0712521554698341e-03
149 -6.3760066310921250e-04 1.2436186111840053e-03 4.1052031152931135e-04
73 4.2579449669127968e-03 2.2747840334558611e-03 -1.5177308462167212e-03
8 2.4602521542960321e-03 -2.8075107652874515e-03 -4.2141236255848105e-05
168 -2.4656352383182699e-03 4.0164058880831389e-03 -1.2683659705974802e-03
155 2.7890066112705040e-06 6.2547079890870848e-03 6.0254073763286887e-03
195 3.3615773730489213e-03 6.5694349363181912e-04 1.2968799665154817e-03
69 3.8192907291897498e-04 2.4322690780251028e-03 2.2595508085515685e-03
87 2.1289783341095213e-04 8.1477948199462080e-03 -2.4323140091093462e-03
52 -1.1580397802444618e-04 -3.2312592151765300e-03 -1.3293402034243347e-03
131 -7.2867273102461090e-03 7.4786877615495564e-03 1.2194809296159506e-03
127 5.5057256812086845e-03 1.7293938649190707e-03 -1.0036192799027089e-02
165 -6.2208485866302688e-03 1.0735705334764599e-03 1.7052679892439549e-03
49 -7.4698428483790393e-04 -1.2586973242292869e-03 -6.5404419134758556e-04
176 2.0454118228596598e-03 -4.5681928533861903e-03 -4.6045208384349881e-03
85 -6.0184726960124573e-03 4.2917215098749288e-03 -1.8706589146508629e-03
124 2.5565003638374378e-03 4.1999371766402865e-03 -1.5426687712243438e-03
188 1.0185625232526142e-06 6.8229321398341584e-03 -4.0026204331271315e-03
40 6.0509763109893953e-03 2.4590196549496616e-03 -2.6820118583653790e-03
122 5.0476818742081122e-03 3.1569897157503585e-03 6.4217896143424717e-03
60 4.2987121401655577e-03 -2.9280820290363747e-03 5.4944618292828663e-03
204 6.9669126009279001e-04 -3.9883453967876612e-04 -2.8027656309404904e-03
216 5.1844290583706364e-03 8.8760430858425706e-04 -4.4344209690587486e-05
173 3.7809154291011467e-03 -5.9563002660623521e-03 -1.7558122914294039e-03
157 1.5667570150792152e-03 -3.1229875965749503e-03 6.1943926825354023e-03
46 8.7158776718949742e-04 -2.9752339638327080e-03 6.3545671841453519e-03
140 2.8800351030614630e-03 7.7886260951071347e-03 -4.5961505078785910e-03
202 -2.5720958435271105e-03 -6.0156785048158731e-03 2.4105910492712734e-03
50 1.5102757689849432e-03 -8.8541575843260098e-04 3.6769152900518530e-03
97 -1.1822253791911425e-04 -3.6984774199916941e-03 1.0801906109414363e-03
78 6.2012822087245531e-03 2.2032599205602270e-03 1.9739911969084574e-03
146 2.8116599772797315e-04 -5.7585469638532991e-03 -5.2888864528078338e-04
115 -7.9914549001800219e-05 -3.6792298191030705e-03 -8.2859709623551055e-03
118 2.8089439722964470e-04 5.8849703759696994e-05 -3.0289714058836731e-03
90 -2.2749346731845647e-03 -4.4185945810536970e-03 1.8398518260622674e-03
48 5.4152663298932579e-03 1.6028902591205259e-03 -9.6906392562730976e-04
35 -4.9157764353571628e-03 -5.2302937626499653e-04 -6.0960680393681507e-04
152 -2.2585516396591205e-03 3.1419505824809213e-03 9.2684738694588512e-04
82 2.5448226344504899e-03 2.4198749655438621e-03 -4.6557942237164040e-05
200 -2.3920843629969234e-03 7.5974220222840951e-03 -2.1671355854444505e-03
121 -4.8038612867269351e-03 2.2626240168847067e-03 -2.8607109202534410e-04
214 1.9928539083853740e-03 -7.2442694382794416e-03 -6.7720162645492901e-03
191 -1.5580563489918983e-03 1.7056427412343131e-03 -9.6800785381005565e-04
114 -3.8432860167741663e-03 -5.1186368621857154e-03 -3.2890951021083952e-03
211 -8.6883947396258453e-03 -3.4741810344141666e-03 -3.0106161271949660e-04
158 -2.1775258248837525e-04 2.0917102326675091e-03 7.1242047375721256e-04
167 -7.8586549764526523e-04 -2.6849160795536300e-03 -6.7134402242659602e-03
186 -2.8512832445768579e-03 8.8501059766558643e-03 2.7838511040625675e-03
102 -1.0859718573795088e-03 -1.0330390966521556e-03 -1.3649749303747685e-03
80 1.7027965412154688e-03 1.6629379904087421e-04 -4.9758275008584001e-04
9 5.5211128096638463e-03 -2.2600022765508058e-03 -6.2790981598621343e-03
125 -4.6209775974642248e-04 -5.9232555619468232e-04 2.3037660340325151e-03
66 -8.3891103519718232e-04 7.6476365250107868e-03 -2.4562356476151791e-03
37 -3.6847666412992111e-03 -6.7544830105828284e-03 -1.9308961237943596e-03
41 -5.7071590556710260e-04 -2.2252956824269907e-03 2.1317692140794191e-03
210 -5.0962387851735593e-03 -1.4666760525199394e-03 9.6062587298816299e-04
75 1.9931528758025136e-03 3.0439518014729653e-03 1.7088645381587236e-03
27 8.4486447176170486e-04 -8.3737207498796264e-04 3.2712116181166416e-03
160 -6.6555115490062175e-03 -5.3886435972562300e-03 6.7661376964019821e-04
103 1.6890969334197601e-03 -7.4791475071903099e-03 -1.6675078031894641e-03
116 3.6821865048550571e-03 1.2765575612731386e-03 5.0317776401208889e-03
207 4.3001041800279051e-04 3.9526670102327469e-03 3.9458834434557616e-03
5 -7.3871289097745955e-04 4.0142869045575102e-03 2.6322520633051015e-03
109 4.6849034472726094e-03 1.2975406638749811e-03 2.0898296355781835e-03
145 -7.4749404599706781e-03 1.0394869213845724e-03 -2.2615222745287745e-03
166 -2.0392131740666780e-03 -4.8353239323582742e-04 -1.0072978666426414e-03
153 -2.5635889873492902e-04 -4.9398017856673009e-03 4.7503137989650937e-03
181 3.2578996351868891e-03 5.9726664723954142e-03 1.0267953000476263e-02
119 1.9661171191168044e-03 1.5824249799933389e-03 1.2090401526132221e-04
209 -2.9468307355103320e-03 -2.7323784845611591e-03 -2.6269421460747839e-03
67 -6.3517185281907937e-04 5.3310343245741871e-03 -2.1296565618364826e-04
203 2.5923897010598964e-03 3.6961689834403328e-03 9.7233249019114051e-03
4 3.7532611289076171e-03 -6.1118207443751121e-04 -1.6972967050663057e-03
3 -8.9631826112587711e-03 4.0641049923222490e-04 -4.8819697973289901e-03
11 2.2585998307588354e-03 -2.1754683759178549e-03 4.1999917684051678e-03
133 2.7550785351249151e-03 -1.9884117331324951e-03 -5.3595985133392905e-03
1 -6.8388139195644821e-04 -5.4108760756071039e-04 -5.7198902857157280e-04
111 -1.6923547705944859e-03 8.6771269010476397e-05 1.7380542617248483e-03
189 1.4430288745723070e-03 -5.4250200648053764e-03 -2.7091421700650448e-04
171 3.3806911819721398e-04 -3.9843325830215583e-03 -8.9833577344542864e-03
163 -6.7607072387015866e-04 -4.3457374693283805e-03 -2.1126734985141152e-03
170 -6.1659656278743608e-03 1.0376116919766054e-02 1.0758876983683371e-03
172 2.8536312498424264e-03 -1.3118850710192812e-03 2.4740091607942196e-03
183 1.3221210165195859e-03 2.2884965341179180e-03 1.6112639224211755e-04
19 1.0364664771418454e-04 2.3401522982854214e-03 -1.7135125670196332e-03
72 2.6660334822721237e-03 4.2732971071704652e-04 1.1374226855359265e-03
194 -1.3738191261411594e-03 7.4833175630900249e-04 1.9438088805028694e-03
161 1.5077099460244516e-03 7.0454670907350902e-03 -1.1949416678687372e-03
42 3.8933434112461301e-04 8.1320247524930538e-03 9.9631132770127968e-04
169 -5.2514230422785555e-03 -9.6212558970582094e-04 -1.0231727034741421e-03
129 2.5196527257579393e-03 -4.3541070266083323e-04 -1.1623654875985902e-03
199 -2.2089080702756086e-04 -1.7274299427098323e-04 -1.9797585126450964e-03
23 -3.1649824109189826e-03 4.2954203604931955e-03 -4.7377811587528935e-04
190 7.7225803623641428e-03 2.3217008012540795e-03 4.1713761916744741e-03
89 5.8716547571179998e-03 6.3270373571181508e-03 2.9044996527961549e-04
74 2.8477323478960405e-03 5.3513551945684695e-04 3.4387476521391199e-03
139 3.5875816886177139e-04 1.6923315916491882e-03 2.4253606419320558e-03
112 -5.6616671034157139e-03 2.1258101903452731e-03 -3.0476806697562770e-03
197 -7.4785316071164058e-03 -7.8580534689823116e-03 5.3823011207901963e-03
30 -2.7278020746875306e-03 -8.2648523576779891e-04 5.6688725165828149e-03
58 -2.0219303921728904e-03 -4.9302039972005159e-03 -9.9601651381658863e-04
141 1.0854980172421095e-03 2.5108503619678778e-03 -7.8239944376250412e-03
71 1.7589164697783099e-03 -2.0595946265087095e-04 6.6879969672245703e-03
77 -9.2694717564695984e-03 1.1396228260914286e-03 5.5622376448422814e-03
117 -3.7849823202553306e-03 1.5894695194918994e-03 -5.0400350704489635e-03
56 -5.0310706593513724e-03 4.2280973339241792e-03 -1.9393007444094502e-03
20 -6.8685338735668272e-04 -1.0608015773581859e-03 -1.6150780482691468e-03
38 1.8152096574152580e-03 -3.5929451194264229e-03 -5.6351798036052858e-04
95 5.9826679434293384e-04 3.0898802377648210e-03 3.4370229532745158e-03
93 2.4891996057684793e-03 2.3963988453651005e-03 7.9468546783793056e-04
142 -1.1044133468340132e-03 6.3129518685286793e-03 -3.2631573100401880e-03
182 -1.8580909908042615e-03 8.2891523400293937e-04 1.3700853766782425e-03
151 2.1573662887851095e-03 -2.7328093181600063e-03 -4.1330557205652143e-03
156 -3.4197315040955262e-03 -1.5498640300238174e-03 -4.1378923322269523e-03